ANIMSTEPS        99
ATOMS         1
   8   -0.87237735180052497872E-18   -0.69036776416483894455E-17   -0.85407164464218025823E-02    0.15519969969133654351E-15    0.31826393372587822140E-14    0.40717439899902695133E-01
   1    0.11190426921625768591E-16   -0.77102882265706396137E+00    0.65432168528656664552E+00   -0.14898024857629915099E-15    0.20853792875217786601E-01   -0.20358719949950712658E-01
   1    0.26573409635380166922E-17    0.77102882265706418341E+00    0.65432168528656553530E+00   -0.62194511150373948264E-17   -0.20853792875220971553E-01   -0.20358719949951982475E-01
ATOMS         2
   8   -0.86454798440355042037E-18   -0.71503327910699709208E-17   -0.85500357131503765262E-02   -0.72489512005893702736E-16    0.88817841970012523234E-15    0.40524709377839883417E-01
   1    0.11057384343453682662E-16   -0.77059220966023755928E+00    0.65439565043608061146E+00    0.67893581673092321626E-16    0.20534382042411439273E-01   -0.20262354688918973733E-01
   1    0.26661033065834084271E-17    0.77059220966023778132E+00    0.65439565043607950123E+00    0.45959303328013926663E-17   -0.20534382042412327452E-01   -0.20262354688920909684E-01
ATOMS         3
   8   -0.85802441099123667229E-18   -0.73809886875560972258E-17   -0.85586249857008776104E-02    0.25843370736243184214E-15   -0.17023419710919065638E-14    0.40320277873295250204E-01
   1    0.10943755254588777083E-16   -0.77014972506264445240E+00    0.65446382176832362809E+00   -0.24797469086059183794E-15    0.20207752678244057104E-01   -0.20160138936648433483E-01
   1    0.26761798098509253414E-17    0.77014972506264467444E+00    0.65446382176832262889E+00   -0.10459016501840030389E-16   -0.20207752678242357075E-01   -0.20160138936646816721E-01
ATOMS         4
   8   -0.84684552715994808689E-18   -0.76423098188351790812E-17   -0.85664879466119444457E-02   -0.12781215707030722455E-16   -0.26645352591003756970E-14    0.40104187019579962126E-01
   1    0.10759220287865590240E-16   -0.76970146226067792661E+00    0.65452622851086572631E+00    0.15406095169083941975E-16    0.19873954131242807519E-01   -0.20052093509789346154E-01
   1    0.26832656621611875084E-17    0.76970146226067814865E+00    0.65452622851086461608E+00   -0.26248794620532195199E-17   -0.19873954131240142984E-01   -0.20052093509790615972E-01
ATOMS         5
   8   -0.83589687849130673776E-18   -0.79516287089206225956E-17   -0.85736284884485713248E-02   -0.12511361475836654910E-16   -0.46629367034256574698E-14    0.39876473343397091098E-01
   1    0.10579090539669106511E-16   -0.76924751670068769460E+00    0.65458290155821374778E+00    0.11700800184969744807E-16    0.19533035272987137043E-01   -0.19938236671700020064E-01
   1    0.26896009564936040679E-17    0.76924751670068791665E+00    0.65458290155821274858E+00    0.81056129086690971840E-18   -0.19533035272982474106E-01   -0.19938236671697071034E-01
ATOMS         6
   8   -0.82517360395063198797E-18   -0.83449436769171993985E-17   -0.85800507131441328124E-02   -0.18754540298726274115E-15    0.21464311809419691800E-14    0.39637183768778339044E-01
   1    0.10402306518029957962E-16   -0.76878798586500474155E+00    0.65463387346658974408E+00    0.17852161427918172016E-15    0.19185048886918087269E-01   -0.19818591884389089725E-01
   1    0.26961680227043826796E-17    0.76878798586500496359E+00    0.65463387346658874488E+00    0.90237887080810363953E-17   -0.19185048886920231387E-01   -0.19818591884389249319E-01
ATOMS         7
   8   -0.81782868928982009325E-18   -0.86995937836530965325E-17   -0.85857589311551154448E-02    0.14171351336791211211E-15    0.51810407815840641840E-15    0.39386365353884844609E-01
   1    0.10276568963000820588E-16   -0.76832296925684895328E+00    0.65467917844722156584E+00   -0.13580095626528894597E-15    0.18830048820894274703E-01   -0.19693182676941672904E-01
   1    0.27053153508674335135E-17    0.76832296925684917532E+00    0.65467917844722056664E+00   -0.59125571026231853992E-17   -0.18830048820894795120E-01   -0.19693182676943171705E-01
ATOMS         8
   8   -0.80793101012307647489E-18   -0.90449109928433116764E-17   -0.85907576606134277569E-02   -0.30271273578219968281E-16    0.13322676295501878485E-14    0.39124067965870423791E-01
   1    0.10112000485410324504E-16   -0.76785256838493165521E+00    0.65471885235961546634E+00    0.26839959683724271378E-16    0.18468090820619495473E-01   -0.19562033982934462495E-01
   1    0.27127720425776527436E-17    0.76785256838493187725E+00    0.65471885235961435612E+00    0.34313138944956984443E-17   -0.18468090820620827741E-01   -0.19562033982935961296E-01
ATOMS         9
   8   -0.79857862428018981502E-18   -0.93662293226303452204E-17   -0.85950516264281205669E-02    0.19978364365730205090E-16   -0.10362081563168128368E-14    0.38850344293576886956E-01
   1    0.99551066253239401998E-17   -0.76737688674751591833E+00    0.65475293270442602722E+00   -0.21478238166963594056E-16    0.18099232269915086629E-01   -0.19425172146789359412E-01
   1    0.27212098841102670580E-17    0.76737688674751614037E+00    0.65475293270442502802E+00    0.14998738012333906991E-17   -0.18099232269914052734E-01   -0.19425172146787527544E-01
ATOMS        10
   8   -0.78886635702425105391E-18   -0.97062134475087427445E-17   -0.85986457593362798646E-02   -0.18494837998502958795E-15   -0.26645352591003756970E-14    0.38565249972942527990E-01
   1    0.97920712782705094208E-17   -0.76689602981600790699E+00    0.65478145861592396137E+00    0.17805017106667367847E-15    0.17723532682521428439E-01   -0.19282624986471402773E-01
   1    0.27300765995258739512E-17    0.76689602981600812903E+00    0.65478145861592296217E+00    0.68982089183558879027E-17   -0.17723532682518763903E-01   -0.19282624986471125217E-01
ATOMS        11
   8   -0.78248566802528233755E-18   -0.10094195331193500387E-16   -0.86015451949008076699E-02    0.10976357567309245382E-15   -0.32566542055671257204E-14    0.38268843609976364861E-01
   1    0.96799475933648785580E-17   -0.76641010501793960241E+00    0.65480447085404136498E+00   -0.11412357362705722704E-15    0.17341053440174298422E-01   -0.19134421804989431432E-01
   1    0.27409157886536495308E-17    0.76641010501793982446E+00    0.65480447085404025476E+00    0.43599979539647709091E-17   -0.17341053440171044081E-01   -0.19134421804986933430E-01
ATOMS        12
   8   -0.77412774655664094411E-18   -0.10540841142308258009E-16   -0.86037552724547335103E-02    0.38667327128011363238E-17   -0.74014868308343703623E-16    0.37961186863323982676E-01
   1    0.95351914162308375835E-17   -0.76591922171941739794E+00    0.65482201179599253127E+00   -0.38854671785726225138E-17    0.16951857914393627519E-01   -0.18980593431662241138E-01
   1    0.27530016755041378727E-17    0.76591922171941761999E+00    0.65482201179599142105E+00    0.18734465771485934169E-19   -0.16951857914393551191E-01   -0.18980593431661741538E-01
ATOMS        13
   8   -0.76570017147636734624E-18   -0.10988820224500970422E-16   -0.86052815339905195519E-02    0.16057819389933030238E-15   -0.34786988104921570285E-14    0.37642344497695955086E-01
   1    0.93893242286939600073E-17   -0.76542349120700181597E+00    0.65483412542745944585E+00   -0.15620598515193198366E-15    0.16556011497188442144E-01   -0.18821172248850114722E-01
   1    0.27650929192873725155E-17    0.76542349120700203802E+00    0.65483412542745844664E+00   -0.43722087473983302756E-17   -0.16556011497184965758E-01   -0.18821172248845840363E-01
ATOMS        14
   8   -0.75438001188477323521E-18   -0.11499463047357541022E-16   -0.86061297229934191622E-02   -0.19527033458059870236E-16   -0.40708177569589070519E-14    0.37312384462308667565E-01
   1    0.91987915050675864408E-17   -0.76492302666900902075E+00    0.65484085733333186052E+00    0.19076487175301927932E-16    0.16153581654066214573E-01   -0.18656192231157137096E-01
   1    0.27759339737938785271E-17    0.76492302666900924280E+00    0.65484085733333075030E+00    0.45054628275794355594E-18   -0.16153581654062141443E-01   -0.18656192231151530470E-01
ATOMS        15
   8   -0.74341160363102402475E-18   -0.12083435779501611211E-16   -0.86063057832174629652E-02    0.46979754041028434888E-16   -0.24424906541753443889E-14    0.36971377953364914504E-01
   1    0.90137135117805178808E-17   -0.76441794317621980515E+00    0.65484225468799228675E+00   -0.45757349520232435306E-16    0.15744637959881943590E-01   -0.18485688976683928297E-01
   1    0.27869038574949442575E-17    0.76441794317622002719E+00    0.65484225468799128755E+00   -0.12224045207960013154E-17   -0.15744637959879501099E-01   -0.18485688976680986206E-01
ATOMS        16
   8   -0.73159692288170857751E-18   -0.12711406457218178689E-16   -0.86058158574029743060E-02    0.23393054962397470051E-16    0.25165055224836882898E-14    0.36619399475127156762E-01
   1    0.88155516629397200405E-17   -0.76390835766198539325E+00    0.65483836624513780400E+00   -0.20016318718878475905E-16    0.15329252156828140560E-01   -0.18309699737562828981E-01
   1    0.27975242068731962248E-17    0.76390835766198572632E+00    0.65483836624513680480E+00   -0.33767362435189956858E-17   -0.15329252156830655909E-01   -0.18309699737564327782E-01
ATOMS        17
   8   -0.71936084999431034891E-18   -0.13294045918284292548E-16   -0.86046662859344674734E-02   -0.13297228582845133384E-16   -0.44408920985006261617E-15    0.36256526941377265061E-01
   1    0.86116663483479316331E-17   -0.76339438890171373853E+00    0.65482924232712780288E+00    0.11759307127507084006E-16    0.14907498138237107455E-01   -0.18128263470689770509E-01
   1    0.28071790123614178583E-17    0.76339438890171396057E+00    0.65482924232712680368E+00    0.15379214553380482228E-17   -0.14907498138236663365E-01   -0.18128263470687494552E-01
ATOMS        18
   8   -0.70736430749711152685E-18   -0.13884685005818136688E-16   -0.86028636054371557945E-02    0.99945398992408579131E-16   -0.33306690738754696213E-14    0.35882841621132310905E-01
   1    0.84111434897873922898E-17   -0.76287615749173975921E+00    0.65481493481384445143E+00   -0.95901628773229210330E-16    0.14479452036012502303E-01   -0.17941420810567182409E-01
   1    0.28172735710780414430E-17    0.76287615749173998125E+00    0.65481493481384345223E+00   -0.40437702191793741935E-17   -0.14479452036009171634E-01   -0.17941420810565128496E-01
ATOMS        19
   8   -0.69356739281933858491E-18   -0.14535321291859929435E-16   -0.86004145473129994109E-02    0.12050168527913202482E-15   -0.31086244689504383132E-14    0.35498428521911172540E-01
   1    0.81831985215244238528E-17   -0.76235378582755686239E+00    0.65479549713107421116E+00   -0.11881217259026048381E-15    0.14045192365625749908E-01   -0.17749214260956613226E-01
   1    0.28262118542237466609E-17    0.76235378582755719545E+00    0.65479549713107310094E+00   -0.16895126888715417772E-17   -0.14045192365622641284E-01   -0.17749214260954559313E-01
ATOMS        20
   8   -0.67759981411824911077E-18   -0.15241954963175811042E-16   -0.85973260362094249681E-02   -0.39769392271701116640E-16    0.22204460492503130808E-15    0.35103376036253873538E-01
   1    0.79212804031447033237E-17   -0.76182739808136612503E+00    0.65477098423835355945E+00    0.38397148666618697408E-16    0.13604799844517151408E-01   -0.17551688018127519636E-01
   1    0.28346670381469409718E-17    0.76182739808136645809E+00    0.65477098423835256025E+00    0.13722436050824198093E-17   -0.13604799844517373453E-01   -0.17551688018126353902E-01
ATOMS        21
   8   -0.66234862364719433697E-18   -0.15944588821257829818E-16   -0.85936051884270524270E-02   -0.20124128634678448889E-16   -0.26645352591003756970E-14    0.34697776283026650346E-01
   1    0.76703415646423491549E-17   -0.76129712017899575649E+00    0.65474145261633254211E+00    0.18702200641590671236E-16    0.13158357590259697756E-01   -0.17348888141514463151E-01
   1    0.28435146013775396948E-17    0.76129712017899608956E+00    0.65474145261633154291E+00    0.14219279930877751488E-17   -0.13158357590257033221E-01   -0.17348888141512187194E-01
ATOMS        22
   8   -0.64745994032221578644E-18   -0.16695220438146214876E-16   -0.85892593102603158328E-02   -0.10882597135888471649E-16   -0.74014868308343752927E-16    0.34281725108287863790E-01
   1    0.74247504329957673490E-17   -0.76076307977613433220E+00    0.65470696025360330950E+00    0.12417455937111871790E-16    0.12705951122687875535E-01   -0.17140862554144181695E-01
   1    0.28527687506683984081E-17    0.76076307977613466527E+00    0.65470696025360231030E+00   -0.15348588012234012964E-17   -0.12705951122687802676E-01   -0.17140862554143682095E-01
ATOMS        23
   8   -0.63276729128529212268E-18   -0.17447185326112550102E-16   -0.85842958962709277337E-02    0.37628235771548734492E-16   -0.16283271027835630574E-14    0.33855322156990240445E-01
   1    0.71827099484371292609E-17   -0.76022540623387779846E+00    0.65466756663299796593E+00   -0.36189659819826050874E-16    0.12247668408946874377E-01   -0.16927661078495481045E-01
   1    0.28615840224661083512E-17    0.76022540623387813152E+00    0.65466756663299685570E+00   -0.14385759517226807288E-17   -0.12247668408945247207E-01   -0.16927661078494759400E-01
ATOMS        24
   8   -0.61739682386382917031E-18   -0.18228482177793887629E-16   -0.85787226274929209019E-02   -0.31008830756164320330E-16   -0.11842378929335002440E-14    0.33418670933528016320E-01
   1    0.69303213933152734705E-17   -0.75968423059357548244E+00    0.65462333271734196583E+00    0.28171700604237007624E-16    0.11783599934194749839E-01   -0.16709335466763036715E-01
   1    0.28699879478866181483E-17    0.75968423059357592653E+00    0.65462333271734085560E+00    0.28371301519273065433E-17   -0.11783599934193566758E-01   -0.16709335466764979605E-01
ATOMS        25
   8   -0.60258493579477605204E-18   -0.19031111366722495634E-16   -0.85725473695681692760E-02    0.17786091390299688855E-15   -0.13322676295501878485E-14    0.32971878862123604748E-01
   1    0.66859882536681651259E-17   -0.75913968555095723278E+00    0.65457432093465606204E+00   -0.16860388155570767057E-15    0.11313838574930568104E-01   -0.16485939431063162397E-01
   1    0.28792031222427457406E-17    0.75913968555095767687E+00    0.65457432093465506284E+00   -0.92570323472892102778E-17   -0.11313838574929235836E-01   -0.16485939431060442351E-01
ATOMS        26
   8   -0.58456913994576834597E-18   -0.19857739435054286781E-16   -0.85657781708112917807E-02    0.28364812166118174358E-16   -0.14062824978585315521E-14    0.32515056673653765229E-01
   1    0.63934445236961667624E-17   -0.75859190542957621872E+00    0.65452059516279814666E+00   -0.25881082064662823301E-16    0.10838479913625737386E-01   -0.16257528336827354459E-01
   1    0.28857713409653392659E-17    0.75859190542957666281E+00    0.65452059516279703644E+00   -0.24837301014553522124E-17   -0.10838479913624332260E-01   -0.16257528336826410770E-01
ATOMS        27
   8   -0.56604239292496156993E-18   -0.20709699653867208154E-16   -0.85584232602149996200E-02    0.11924333469564669680E-15   -0.14802973661668754530E-14    0.32048322217666701250E-01
   1    0.60935003576661640201E-17   -0.75804102615347812577E+00    0.65446222071363158168E+00   -0.11880639277235344904E-15    0.10357622102234223180E-01   -0.16024161108832601225E-01
   1    0.28916293619552718428E-17    0.75804102615347868088E+00    0.65446222071363058248E+00   -0.43694192329326769925E-18   -0.10357622102232741726E-01   -0.16024161108834100026E-01
ATOMS        28
   8   -0.54536764925129003737E-18   -0.21588325294239225330E-16   -0.85504910453271989329E-02    0.66945020423555978718E-16    0.32566542055671257204E-14    0.31571793168635974014E-01
   1    0.57595846942004198822E-17   -0.75748718521913527280E+00    0.65439926431617656544E+00   -0.62065245846250397063E-16    0.98713657221744469800E-02   -0.15785896584316123914E-01
   1    0.28973624437809018883E-17    0.75748718521913571688E+00    0.65439926431617545521E+00   -0.48797745773055908998E-17   -0.98713657221777047907E-02   -0.15785896584319850100E-01
ATOMS        29
   8   -0.52348698761027228152E-18   -0.22408287007181240985E-16   -0.85419901101312645242E-02   -0.12811488035751985704E-15    0.20724163126336256736E-14    0.31085593914507381186E-01
   1    0.54079220956505121785E-17   -0.75693052166668650660E+00    0.65433179409978614594E+00    0.12466815947120493855E-15    0.93798145302718318600E-02   -0.15542796957252273324E-01
   1    0.29017002029671387024E-17    0.75693052166668706171E+00    0.65433179409978503571E+00    0.34467208863149350468E-17   -0.93798145302739031198E-02   -0.15542796957255107862E-01
ATOMS        30
   8   -0.50391413071903366903E-18   -0.23190917129940531761E-16   -0.85329292128053617350E-02   -0.13102469347438937936E-15    0.26645352591003756970E-14    0.30589852226122982159E-01
   1    0.50919071079821983855E-17   -0.75637117605026960021E+00    0.65425987957636266845E+00    0.12576666064078683753E-15    0.88830745149870993238E-02   -0.15294926113060517900E-01
   1    0.29070235174506856954E-17    0.75637117605027015532E+00    0.65425987957636166925E+00    0.52580328336025410604E-17   -0.88830745149897638591E-02   -0.15294926113062464260E-01
ATOMS        31
   8   -0.48670149466314799326E-18   -0.23925549493893459337E-16   -0.85233172834208448254E-02    0.12828084112863787688E-16    0.59211894646675012202E-15    0.30084700479214559338E-01
   1    0.48118538365966685689E-17   -0.75580929040771371863E+00    0.65418359162208994384E+00   -0.13551323851473777504E-16    0.83812545675375719340E-02   -0.15042350239606417511E-01
   1    0.29138503137314292493E-17    0.75580929040771438476E+00    0.65418359162208894464E+00    0.72323973860998943018E-18   -0.83812545675381652094E-02   -0.15042350239608141826E-01
ATOMS        32
   8   -0.46925777917789691500E-18   -0.24649515689222748593E-16   -0.85131634215576956759E-02   -0.17033668298183865430E-16   -0.10362081563168128368E-14    0.29570275684769182362E-01
   1    0.45279256999557532301E-17   -0.75524500822940421330E+00    0.65410300245850805378E+00    0.21758483894105138173E-16    0.78744659235769950273E-02   -0.14785137842386058757E-01
   1    0.29208839131677294757E-17    0.75524500822940487943E+00    0.65410300245850705458E+00   -0.47248155959212750543E-17   -0.78744659235759576627E-02   -0.14785137842383123605E-01
ATOMS        33
   8   -0.45212090065409021167E-18   -0.25392147679643404910E-16   -0.85024768938364737175E-02   -0.72277486252126507254E-16    0.10362081563168128368E-14    0.29046718503395945604E-01
   1    0.42502191837391739040E-17   -0.75467847442647506551E+00    0.65401818563292424269E+00    0.68328470867374589152E-16    0.73628239236860166736E-02   -0.14523359251697997088E-01
   1    0.29265664989324944679E-17    0.75467847442647562062E+00    0.65401818563292324349E+00    0.39490153847519250346E-17   -0.73628239236870523035E-02   -0.14523359251697948516E-01
ATOMS        34
   8   -0.43628599677686074916E-18   -0.26116113874972697247E-16   -0.84912671313845129034E-02    0.15262107763977840556E-16    0.11842378929335002440E-14    0.28514174859247010119E-01
   1    0.39920505090367876446E-17   -0.75410983529782904533E+00    0.65392921599830322599E+00   -0.14339338540119788654E-16    0.68464454482854058062E-02   -0.14257087429622974234E-01
   1    0.29333782660728263504E-17    0.75410983529782960044E+00    0.65392921599830222679E+00   -0.92276922385805421226E-18   -0.68464454482865906224E-02   -0.14257087429624035885E-01
ATOMS        35
   8   -0.42017616804553890868E-18   -0.26818747733054716023E-16   -0.84795437272073091034E-02    0.17793198839116324204E-16   -0.37007434154171881394E-15    0.27972794957982438646E-01
   1    0.37297816441756176893E-17   -0.75353923849671633484E+00    0.65383616969240432315E+00   -0.17107837811688252990E-16    0.63254506765189804154E-02   -0.13986397478990799520E-01
   1    0.29399261766008110345E-17    0.75353923849671688995E+00    0.65383616969240332395E+00   -0.68536102742806976985E-18   -0.63254506765186109193E-02   -0.13986397478991639126E-01
ATOMS        36
   8   -0.40374582050578450002E-18   -0.27528047946526510291E-16   -0.84673164334827816929E-02    0.13728273885993758763E-15    0.66613381477509392425E-15    0.27422733595678112223E-01
   1    0.34626209645325233908E-17   -0.75296683299637090503E+00    0.65373912411630608066E+00   -0.13438507982271544199E-15    0.57999626822192035247E-02   -0.13711366797839524487E-01
   1    0.29462781150111134618E-17    0.75296683299637146014E+00    0.65373912411630508146E+00   -0.28976590372221541207E-17   -0.57999626822198696585E-02   -0.13711366797838587736E-01
ATOMS        37
   8   -0.38484252247097797511E-18   -0.28225348720296716070E-16   -0.84545951587728512822E-02   -0.75943977561411397749E-16   -0.37007434154171881394E-15    0.26864150208226300620E-01
   1    0.31570342180081042808E-17   -0.75239276905481888846E+00    0.65363815791227586338E+00    0.74495815473739179586E-16    0.52701074582505351776E-02   -0.13432075104112730507E-01
   1    0.29518014968576180367E-17    0.75239276905481944357E+00    0.65363815791227486418E+00    0.14481620876722249044E-17   -0.52701074582501656815E-02   -0.13432075104113570113E-01
ATOMS        38
   8   -0.36730724563436679700E-18   -0.28929315849456691178E-16   -0.84413899651514211209E-02   -0.13283805228105866737E-15    0.96219328800846913318E-15    0.26297208917736385886E-01
   1    0.28727488033841397460E-17   -0.75181719817885173107E+00    0.65353335094097453339E+00    0.12986853874387187694E-15    0.47360139403746408585E-02   -0.13148604458867995184E-01
   1    0.29577389661408329830E-17    0.75181719817885228618E+00    0.65353335094097353419E+00    0.29695135371867773353E-17   -0.47360139403756036300E-02   -0.13148604458868390701E-01
ATOMS        39
   8   -0.35216485467604046339E-18   -0.29615950454603249391E-16   -0.84277110652479659408E-02    0.14536217535877287324E-16    0.37007434154171886324E-15    0.25722078575181866328E-01
   1    0.26255979959809712502E-17   -0.75124027308715857210E+00    0.65342478425799244146E+00   -0.15199002467840541477E-16    0.41978140283056670709E-02   -0.12861039287592289718E-01
   1    0.29645255380620454187E-17    0.75124027308715912721E+00    0.65342478425799133124E+00    0.66278493196325482641E-18   -0.41978140283060365670E-02   -0.12861039287589576610E-01
ATOMS        40
   8   -0.33676061472890416526E-18   -0.30295918704360047521E-16   -0.84135688192059181201E-02   -0.18335513603732489199E-16    0.74014868308343777579E-16    0.25138932805419528932E-01
   1    0.23741011861337137540E-17   -0.75066214767261096874E+00    0.65331254008970851554E+00    0.15603088487313881002E-16    0.36556426078738677408E-02   -0.12569466402709677730E-01
   1    0.29715016266926806811E-17    0.75066214767261163487E+00    0.65331254008970751634E+00    0.27324251164186093527E-17   -0.36556426078739414666E-02   -0.12569466402709851202E-01
ATOMS        41
   8   -0.32168666260833614208E-18   -0.30974553683038886239E-16   -0.83989737315550636043E-02   -0.12391299850791148753E-16   -0.43668772301922826553E-14    0.24547950038395455891E-01
   1    0.21270659230784039229E-17   -0.75008297696369352625E+00    0.65319670180846733931E+00    0.92612125694827858481E-17    0.31096375646806804181E-02   -0.12273975019198305608E-01
   1    0.29792590249032945337E-17    0.75008297696369419238E+00    0.65319670180846622909E+00    0.31300872813083625201E-17   -0.31096375646763132518E-02   -0.12273975019197150282E-01
ATOMS        42
   8   -0.30683592187876176543E-18   -0.31731851655317034462E-16   -0.83839364479973994132E-02   -0.63789790896668446496E-16   -0.35527136788005009294E-14    0.23949313547777517641E-01
   1    0.18826788109492736088E-17   -0.74950291708507665867E+00    0.65307735390706878054E+00    0.56695364827791255783E-16    0.25599398018874564009E-02   -0.11974656773889336484E-01
   1    0.29879114402049029397E-17    0.74950291708507721378E+00    0.65307735390706767031E+00    0.70944260688771860913E-17   -0.25599398018839036872E-02   -0.11974656773888181158E-01
ATOMS        43
   8   -0.29313426220837380475E-18   -0.32553146639337012611E-16   -0.83684677521056998611E-02    0.55318102962688168816E-17   -0.39227880203422192503E-14    0.23343211047004135822E-01
   1    0.16545031702394984661E-17   -0.74892212521732703934E+00    0.65295458197256561750E+00   -0.61613281619254257728E-17    0.20066933336015161347E-02   -0.11671605523502423529E-01
   1    0.29985924355465490064E-17    0.74892212521732759445E+00    0.65295458197256450728E+00    0.62951786565660918011E-18   -0.20066933335975930576E-02   -0.11671605523501712293E-01
ATOMS        44
   8   -0.27933295495574576567E-18   -0.33445104990488568443E-16   -0.83525785619421484551E-02   -0.62057669383520910362E-16   -0.88817841970012523234E-15    0.22729836452794433682E-01
   1    0.14245657594854577310E-17   -0.74834075955572798566E+00    0.65282847265942611781E+00    0.59459412258877851615E-16    0.14500449703702400495E-02   -0.11364918226397350415E-01
   1    0.30094534352133826236E-17    0.74834075955572865180E+00    0.65282847265942511861E+00    0.25982571246430552804E-17   -0.14500449703693518710E-02   -0.11364918226397083267E-01
ATOMS        45
   8   -0.26664952709202132752E-18   -0.34353062594575581757E-16   -0.83362799265651998243E-02   -0.15487733782173982948E-15   -0.29605947323337511032E-15    0.22109387301091059513E-01
   1    0.12116301718147386612E-17   -0.74775897926830081630E+00    0.65269911366180943801E+00    0.15099738606583506287E-15    0.89014481415143154128E-03   -0.11054693650544886174E-01
   1    0.30210573804674649913E-17    0.74775897926830137141E+00    0.65269911366180832779E+00    0.38799517559047797039E-17   -0.89014481415113555409E-03   -0.11054693650546173339E-01
ATOMS        46
   8   -0.25675599104149402087E-18   -0.35266353282974414231E-16   -0.83195830224712542106E-02    0.88423550476882100140E-16    0.14802973661668754530E-14    0.21482066511496533678E-01
   1    0.10418707735210355966E-17   -0.74717694445288429517E+00    0.65256659368532421439E+00   -0.86381243763522156508E-16    0.32714593979575140549E-03   -0.10741033255746624056E-01
   1    0.30337707590445429766E-17    0.74717694445288485028E+00    0.65256659368532310417E+00   -0.20423067133599486395E-17   -0.32714593979723166671E-03   -0.10741033255749909622E-01
ATOMS        47
   8   -0.24526963228986103056E-18   -0.36152978549814157066E-16   -0.83024991499393574479E-02    0.55179652805704621203E-16    0.42188474935755948536E-14    0.20848081957069847930E-01
   1    0.84741152421315726785E-18   -0.74659481609336475483E+00    0.65243100241801699202E+00   -0.52795194736816729056E-16   -0.23879552368674672458E-03   -0.10424040978534169360E-01
   1    0.30459001604832118095E-17    0.74659481609336530994E+00    0.65243100241801588179E+00   -0.23844580688878921463E-17    0.23879552368252787709E-03   -0.10424040978535678570E-01
ATOMS        48
   8   -0.23278929169567549313E-18   -0.36963607365210490731E-16   -0.82850397292866632959E-02    0.16933990157969033866E-16   -0.31826393372587822140E-14    0.20207646479525626787E-01
   1    0.63785601803922070330E-18   -0.74601275601503203028E+00    0.65229243050065288667E+00   -0.15602445237606285803E-16   -0.80752039402994435415E-03   -0.10103823239763502079E-01
   1    0.30573477500321107321E-17    0.74601275601503269641E+00    0.65229243050065177645E+00   -0.13315449203627457519E-17    0.80752039403312692121E-03   -0.10103823239762124708E-01
ATOMS        49
   8   -0.22000390969794476468E-18   -0.37831566836958875749E-16   -0.82672162970344013899E-02   -0.92224795326422886783E-16   -0.30346096006420948068E-14    0.19560977938440544249E-01
   1    0.42383914900414354604E-18   -0.74543092683906386764E+00    0.65215096949628537093E+00    0.89802475070513242065E-16   -0.13788664501114360466E-02   -0.97804889692195157852E-02
   1    0.30684145976546526449E-17    0.74543092683906442275E+00    0.65215096949628437173E+00    0.24223202559096327774E-17    0.13788664501144705116E-02   -0.97804889692210284641E-02
ATOMS        50
   8   -0.20887982434356872415E-18   -0.38754190422903387132E-16   -0.82490405019834487504E-02    0.39010832601345899571E-16   -0.74014868308343703623E-16    0.18908299062720956840E-01
   1    0.23550039779077961392E-18   -0.74484949193613925189E+00    0.65200671185910907823E+00   -0.35554036483287419732E-16   -0.19526683782134974816E-02   -0.94541495313597220806E-02
   1    0.30801740834799202845E-17    0.74484949193613980700E+00    0.65200671185910796801E+00   -0.34567961180584840763E-17    0.19526683782135716410E-02   -0.94541495313612347595E-02
ATOMS        51
   8   -0.19705301511731308415E-18   -0.39678147279925857927E-16   -0.82305241012021936736E-02    0.60818392465102754606E-16   -0.14062824978585315521E-14    0.18249837657869472096E-01
   1    0.36995326137600589199E-19   -0.74426861537916932932E+00    0.65185975090261571996E+00   -0.59937178232621799974E-16   -0.25287578823021314954E-02   -0.91249188289356450432E-02
   1    0.30909451330963259698E-17    0.74426861537916999545E+00    0.65185975090261460974E+00   -0.88121423248095193594E-18    0.25287578823035374888E-02   -0.91249188289338270530E-02
ATOMS        52
   8   -0.18413065028804538374E-18   -0.40627436287429452786E-16   -0.82116789559229345918E-02   -0.47610587332668085767E-17   -0.30346096006420944123E-14    0.17585826461506009338E-01
   1   -0.17864818099132447408E-18   -0.74368846189517479051E+00    0.65171018076702535993E+00    0.51917762512664861620E-17   -0.31069636271911318416E-02   -0.87929132307526924189E-02
   1    0.31014642083337399297E-17    0.74368846189517545664E+00    0.65171018076702436073E+00   -0.43071751799967772977E-18    0.31069636271941667403E-02   -0.87929132307533169194E-02
ATOMS        53
   8   -0.17129404906350453893E-18   -0.41631389409129186336E-16   -0.81925170273494697659E-02   -0.16011125905528512504E-15   -0.15543122344752191566E-14    0.16916503116923459898E-01