ANIMSTEPS        99
ATOMS         1
   8   -0.87237735180052497872E-18   -0.69036776416483894455E-17   -0.85407164464218025823E-02    0.64315180483568090943E-20   -0.27532047759760368499E-18   -0.96859996987713993185E-05
   1    0.11190426921625768591E-16   -0.77102882265706396137E+00    0.65432168528656664552E+00   -0.11174287360911837312E-18    0.43363153027964389469E-03    0.76875835489952800664E-04
   1    0.26573409635380166922E-17    0.77102882265706418341E+00    0.65432168528656553530E+00    0.96515379055161930290E-20   -0.43363153027963961209E-03    0.76875835489949602268E-04
ATOMS         2
   8   -0.86454798440355042037E-18   -0.71503327910699709208E-17   -0.85500357131503765262E-02    0.71764704046441035633E-20   -0.23865552295385499752E-18   -0.89542696395377122418E-05
   1    0.11057384343453682662E-16   -0.77059220966023755928E+00    0.65439565043608061146E+00   -0.12333583351849527257E-18    0.43954879720979291762E-03    0.71068240878543285509E-04
   1    0.26661033065834084271E-17    0.77059220966023778132E+00    0.65439565043607950123E+00    0.94194231564543126034E-20   -0.43954879720978917712E-03    0.71068240878539626327E-04
ATOMS         3
   8   -0.85802441099123667229E-18   -0.73809886875560972258E-17   -0.85586249857008776104E-02    0.88512286218011667442E-20   -0.24598851388260475427E-18   -0.82261167307836513985E-05
   1    0.10943755254588777083E-16   -0.77014972506264445240E+00    0.65446382176832362809E+00   -0.14908202779404565732E-18    0.44537369977981470810E-03    0.65289037392504909178E-04
   1    0.26761798098509253414E-17    0.77014972506264467444E+00    0.65446382176832262889E+00    0.85811777888894638766E-20   -0.44537369977981091339E-03    0.65289037392501209339E-04
ATOMS         4
   8   -0.84684552715994808689E-18   -0.76423098188351790812E-17   -0.85664879466119444457E-02    0.11063766249965012403E-19   -0.28532001068226244419E-18   -0.75017513738466488259E-05
   1    0.10759220287865590240E-16   -0.76970146226067792661E+00    0.65452622851086572631E+00   -0.18233235745983571952E-18    0.45110418097836306982E-03    0.59539894945022447611E-04
   1    0.26832656621611875084E-17    0.76970146226067814865E+00    0.65452622851086461608E+00    0.67105733213395227083E-20   -0.45110418097835862459E-03    0.59539894945018801981E-04
ATOMS         5
   8   -0.83589687849130673776E-18   -0.79516287089206225956E-17   -0.85736284884485713248E-02    0.10835961604658041932E-19   -0.35131692904101006237E-18   -0.67813832660941841956E-05
   1    0.10579090539669106511E-16   -0.76924751670068769460E+00    0.65458290155821374778E+00   -0.17845688491781671691E-18    0.45673819783661936391E-03    0.53822477862012269750E-04
   1    0.26896009564936040679E-17    0.76924751670068791665E+00    0.65458290155821274858E+00    0.64511802715977646904E-20   -0.45673819783661383448E-03    0.53822477862008854513E-04
ATOMS         6
   8   -0.82517360395063198797E-18   -0.83449436769171993985E-17   -0.85800507131441328124E-02    0.90340946007432575557E-20   -0.37398253736623648694E-18   -0.60652213532714374539E-05
   1    0.10402306518029957962E-16   -0.76878798586500474155E+00    0.65463387346658974408E+00   -0.15126078833414310559E-18    0.46227372191938204560E-03    0.48138444503915472298E-04
   1    0.26961680227043826796E-17    0.76878798586500496359E+00    0.65463387346658874488E+00    0.78571971869147694346E-20   -0.46227372191937619091E-03    0.48138444503912456861E-04
ATOMS         7
   8   -0.81782868928982009325E-18   -0.86995937836530965325E-17   -0.85857589311551154448E-02    0.86212969137777414983E-20   -0.34998365796305551299E-18   -0.53534737346467751738E-05
   1    0.10276568963000820588E-16   -0.76832296925684895328E+00    0.65467917844722156584E+00   -0.14515301630981694566E-18    0.46770874003652560501E-03    0.42489446512856968098E-04
   1    0.27053153508674335135E-17    0.76832296925684917532E+00    0.65467917844722056664E+00    0.83020099366349417157E-20   -0.46770874003652012979E-03    0.42489446512853715492E-04
ATOMS         8
   8   -0.80793101012307647489E-18   -0.90449109928433116764E-17   -0.85907576606134277569E-02    0.96250325048151737203E-20   -0.33331776948862429579E-18   -0.46463476365037036989E-05
   1    0.10112000485410324504E-16   -0.76785256838493165521E+00    0.65471885235961546634E+00   -0.16073116883844031460E-18    0.47304125466651476394E-03    0.36877128602255437916E-04
   1    0.27127720425776527436E-17    0.76785256838493187725E+00    0.65471885235961435612E+00    0.79472666214167647610E-20   -0.47304125466650961398E-03    0.36877128602251758405E-04
ATOMS         9
   8   -0.79857862428018981502E-18   -0.93662293226303452204E-17   -0.85950516264281205669E-02    0.95323265494127165037E-20   -0.33065122733271534149E-18   -0.39440493614265722188E-05
   1    0.99551066253239401998E-17   -0.76737688674751591833E+00    0.65475293270442602722E+00   -0.15996460356990797471E-18    0.47826928446194144021E-03    0.31303128154314635936E-04
   1    0.27212098841102670580E-17    0.76737688674751614037E+00    0.65475293270442502802E+00    0.86522784741106263632E-20   -0.47826928446193629025E-03    0.31303128154311003859E-04
ATOMS        10
   8   -0.78886635702425105391E-18   -0.97062134475087427445E-17   -0.85986457593362798646E-02    0.80464781274537026259E-20   -0.36398300428157777588E-18   -0.32467842363424096548E-05
   1    0.97920712782705094208E-17   -0.76689602981600790699E+00    0.65478145861592396137E+00   -0.13757951597953120610E-18    0.48339086478824046678E-03    0.25769074807642431389E-04
   1    0.27300765995258739512E-17    0.76689602981600812903E+00    0.65478145861592296217E+00    0.98529522716912619396E-20   -0.48339086478823477472E-03    0.25769074807639104244E-04
ATOMS        11
   8   -0.78248566802528233755E-18   -0.10094195331193500387E-16   -0.86015451949008076699E-02    0.73693052338050233058E-20   -0.41731384739975768054E-18   -0.25547565592263053391E-05
   1    0.96799475933648785580E-17   -0.76641010501793960241E+00    0.65480447085404136498E+00   -0.12843993101983618350E-18    0.48840404829527186981E-03    0.20276590034261663753E-04
   1    0.27409157886536495308E-17    0.76641010501793982446E+00    0.65480447085404025476E+00    0.11462537989132105203E-19   -0.48840404829526536459E-03    0.20276590034258733019E-04
ATOMS        12
   8   -0.77412774655664094411E-18   -0.10540841142308258009E-16   -0.86037552724547335103E-02    0.83927482744574610484E-20   -0.44731244665373386187E-18   -0.18681695448562220032E-05
   1    0.95351914162308375835E-17   -0.76591922171941739794E+00    0.65482201179599253127E+00   -0.14531168233545949205E-18    0.49330690546886719894E-03    0.14827286709076924429E-04
   1    0.27530016755041378727E-17    0.76591922171941761999E+00    0.65482201179599142105E+00    0.12088565316861415639E-19   -0.49330690546886015162E-03    0.14827286709074422293E-04
ATOMS        13
   8   -0.76570017147636734624E-18   -0.10988820224500970422E-16   -0.86052815339905195519E-02    0.98738673359338454206E-20   -0.47931095252464179503E-18   -0.11872252693429305148E-05
   1    0.93893242286939600073E-17   -0.76542349120700181597E+00    0.65483412542745944585E+00   -0.16819995558162573987E-18    0.49809752520417840439E-03    0.94227686696197159581E-05
   1    0.27650929192873725155E-17    0.76542349120700203802E+00    0.65483412542745844664E+00    0.11466149144870414451E-19   -0.49809752520417081498E-03    0.94227686696178982254E-05
ATOMS        14
   8   -0.75438001188477323521E-18   -0.11499463047357541022E-16   -0.86061297229934191622E-02    0.11144283922671629149E-19   -0.54730777750032116505E-18   -0.51212461347223184045E-06
   1    0.91987915050675864408E-17   -0.76492302666900902075E+00    0.65484085733333186052E+00   -0.18780535845672137618E-18    0.50277401539099511336E-03    0.40646302663670468055E-05
   1    0.27759339737938785271E-17    0.76492302666900924280E+00    0.65484085733333075030E+00    0.10905469103786050036E-19   -0.50277401539098643974E-03    0.40646302663666410767E-05
ATOMS        15
   8   -0.74341160363102402475E-18   -0.12083435779501611211E-16   -0.86063057832174629652E-02    0.11391544501532322831E-19   -0.60597170493031893018E-18    0.15693279522206926543E-06
   1    0.90137135117805178808E-17   -0.76441794317621980515E+00    0.65484225468799228675E+00   -0.19161992106393281492E-18    0.50733450351176626221E-03   -0.12455440970129286416E-05
   1    0.27869038574949442575E-17    0.76441794317622002719E+00    0.65484225468799128755E+00    0.10795116539658844364E-19   -0.50733450351175672123E-03   -0.12455440970121129488E-05
ATOMS        16
   8   -0.73159692288170857751E-18   -0.12711406457218178689E-16   -0.86058158574029743060E-02    0.12025376818356877036E-19   -0.60530506939134172771E-18    0.81974864149801483312E-06
   1    0.88155516629397200405E-17   -0.76390835766198539325E+00    0.65483836624513780400E+00   -0.20102358171629232943E-18    0.51177713725303732115E-03   -0.65061804322490935653E-05
   1    0.27975242068731962248E-17    0.76390835766198572632E+00    0.65483836624513680480E+00    0.10137577433236699593E-19   -0.51177713725302788859E-03   -0.65061804322480720436E-05
ATOMS        17
   8   -0.71936084999431034891E-18   -0.13294045918284292548E-16   -0.86046662859344674734E-02    0.12116307692298522325E-19   -0.58663927429997880682E-18    0.14761259829092415416E-05
   1    0.86116663483479316331E-17   -0.76339438890171373853E+00    0.65482924232712780288E+00   -0.20220408657616397169E-18    0.51610008512286364123E-03   -0.11715715646674298067E-04
   1    0.28071790123614178583E-17    0.76339438890171396057E+00    0.65482924232712680368E+00    0.98746821024223562775E-20   -0.51610008512285442551E-03   -0.11715715646673164737E-04
ATOMS        18
   8   -0.70736430749711152685E-18   -0.13884685005818136688E-16   -0.86028636054371557945E-02    0.12896728587485877487E-19   -0.62063768678781844368E-18    0.21258693107336272020E-05
   1    0.84111434897873922898E-17   -0.76287615749173975921E+00    0.65481493481384445143E+00   -0.21423391341175405868E-18    0.52030153707840651970E-03   -0.16872598026802768139E-04
   1    0.28172735710780414430E-17    0.76287615749173998125E+00    0.65481493481384345223E+00    0.95164209311640612549E-20   -0.52030153707839676188E-03   -0.16872598026801016475E-04
ATOMS        19
   8   -0.69356739281933858491E-18   -0.14535321291859929435E-16   -0.86004145473129994109E-02    0.14882246689431277250E-19   -0.67863497867883900634E-18    0.27687846138650121210E-05
   1    0.81831985215244238528E-17   -0.76235378582755686239E+00    0.65479549713107421116E+00   -0.24493154332134414598E-18    0.52437970518676103784E-03   -0.21975287745425457260E-04
   1    0.28262118542237466609E-17    0.76235378582755719545E+00    0.65479549713107310094E+00    0.86967335344495041322E-20   -0.52437970518675030424E-03   -0.21975287745423116061E-04
ATOMS        20
   8   -0.67759981411824911077E-18   -0.15241954963175811042E-16   -0.85973260362094249681E-02    0.15609384586072117953E-19   -0.70463376469895173213E-18    0.34046794429731921044E-05
   1    0.79212804031447033237E-17   -0.76182739808136612503E+00    0.65477098423835355945E+00   -0.25642847844103754150E-18    0.52833282428054991267E-03   -0.27022257370835834933E-04
   1    0.28346670381469409718E-17    0.76182739808136645809E+00    0.65477098423835256025E+00    0.86513735768964026048E-20   -0.52833282428053885381E-03   -0.27022257370833032948E-04
ATOMS        21
   8   -0.66234862364719433697E-18   -0.15944588821257829818E-16   -0.85936051884270524270E-02    0.15069936898016604988E-19   -0.72663273748520095424E-18    0.40333629745542517160E-05
   1    0.76703415646423491549E-17   -0.76129712017899575649E+00    0.65474145261633254211E+00   -0.24826498507446784291E-18    0.53215915261588611369E-03   -0.32011992375184417136E-04
   1    0.28435146013775396948E-17    0.76129712017899608956E+00    0.65474145261633154291E+00    0.90508562607286760144E-20   -0.53215915261587462114E-03   -0.32011992375181123872E-04
ATOMS        22
   8   -0.64745994032221578644E-18   -0.16695220438146214876E-16   -0.85892593102603158328E-02    0.14790666180951080062E-19   -0.75129825242735917880E-18    0.46546460780627523768E-05
   1    0.74247504329957673490E-17   -0.76076307977613433220E+00    0.65470696025360330950E+00   -0.24381580810260970629E-18    0.53585697255897088518E-03   -0.36942991667293210328E-04
   1    0.28527687506683984081E-17    0.76076307977613466527E+00    0.65470696025360231030E+00    0.90347105442841626930E-20   -0.53585697255895906738E-03   -0.36942991667289517264E-04
ATOMS        23
   8   -0.63276729128529212268E-18   -0.17447185326112550102E-16   -0.85842958962709277337E-02    0.15031558229193287004E-19   -0.76663086982383589477E-18    0.52683413836975315317E-05
   1    0.71827099484371292609E-17   -0.76022540623387779846E+00    0.65466756663299796593E+00   -0.24721451984024732444E-18    0.53942459127943702402E-03   -0.41813768130658127240E-04
   1    0.28615840224661083512E-17    0.76022540623387813152E+00    0.65466756663299685570E+00    0.86095986091099152575E-20   -0.53942459127942488095E-03   -0.41813768130654257993E-04
ATOMS        24
   8   -0.61739682386382917031E-18   -0.18228482177793887629E-16   -0.85787226274929209019E-02    0.15091177745258032311E-19   -0.79196302030497132180E-18    0.58742633513786342753E-05
   1    0.69303213933152734705E-17   -0.75968423059357548244E+00    0.65462333271734196583E+00   -0.24836084738448221193E-18    0.54286034146024141935E-03   -0.46622849170905069618E-04
   1    0.28699879478866181483E-17    0.75968423059357592653E+00    0.65462333271734085560E+00    0.88095498883185773254E-20   -0.54286034146022895102E-03   -0.46622849170901376555E-04
ATOMS        25
   8   -0.60258493579477605204E-18   -0.19031111366722495634E-16   -0.85725473695681692760E-02    0.16413841959030394113E-19   -0.81462862863019784267E-18    0.64722283408134772547E-05
   1    0.66859882536681651259E-17   -0.75913968555095723278E+00    0.65457432093465606204E+00   -0.26843843480955335403E-18    0.54616258199955498766E-03   -0.51368777271891354389E-04
   1    0.28792031222427457406E-17    0.75913968555095767687E+00    0.65457432093465506284E+00    0.78916965393605647932E-20   -0.54616258199954208566E-03   -0.51368777271887552905E-04
ATOMS        26
   8   -0.58456913994576834597E-18   -0.19857739435054286781E-16   -0.85657781708112917807E-02    0.18271271434907216976E-19   -0.83929414357235606723E-18    0.70620546765841766263E-05
   1    0.63934445236961667624E-17   -0.75859190542957621872E+00    0.65452059516279814666E+00   -0.29624394800100026404E-18    0.54932969873952575135E-03   -0.56050110512290176310E-04
   1    0.28857713409653392659E-17    0.75859190542957666281E+00    0.65452059516279703644E+00    0.62131198562631067702E-20   -0.54932969873951252408E-03   -0.56050110512285853054E-04
ATOMS        27
   8   -0.56604239292496156993E-18   -0.20709699653867208154E-16   -0.85584232602149996200E-02    0.19600745347239136245E-19   -0.86529292959246869673E-18    0.76435627420461494470E-05
   1    0.60935003576661640201E-17   -0.75804102615347812577E+00    0.65446222071363158168E+00   -0.31692991474787334382E-18    0.55236010522051058515E-03   -0.60665423310844611611E-04
   1    0.28916293619552718428E-17    0.75804102615347868088E+00    0.65446222071363058248E+00    0.57955514077810990640E-20   -0.55236010522049681579E-03   -0.60665423310840369670E-04
ATOMS        28
   8   -0.54536764925129003737E-18   -0.21588325294239225330E-16   -0.85504910453271989329E-02    0.21277702657344689348E-19   -0.84929367665701477829E-18    0.82165750418675563609E-05
   1    0.57595846942004198822E-17   -0.75748718521913527280E+00    0.65439926431617656544E+00   -0.34278913100782606524E-18    0.55525224339577402416E-03   -0.65213306922731669466E-04
   1    0.28973624437809018883E-17    0.75748718521913571688E+00    0.65439926431617545521E+00    0.50354205059333192258E-20   -0.55525224339576058005E-03   -0.65213306922728172914E-04
ATOMS        29
   8   -0.52348698761027228152E-18   -0.22408287007181240985E-16   -0.85419901101312645242E-02    0.20726759266128199217E-19   -0.80129591785065283039E-18    0.87809162609191952591E-05
   1    0.54079220956505121785E-17   -0.75693052166668650660E+00    0.65433179409978614594E+00   -0.33383879310911070023E-18    0.55800458443281786107E-03   -0.69692369906959402326E-04
   1    0.29017002029671387024E-17    0.75693052166668706171E+00    0.65433179409978503571E+00    0.48305368348919313602E-20   -0.55800458443280517590E-03   -0.69692369906956827346E-04
ATOMS        30
   8   -0.50391413071903366903E-18   -0.23190917129940531761E-16   -0.85329292128053617350E-02    0.18392746473562105007E-19   -0.75863124335610898370E-18    0.93364133552102678194E-05
   1    0.50919071079821983855E-17   -0.75637117605026960021E+00    0.65425987957636266845E+00   -0.29803412952692175662E-18    0.56061562948642477619E-03   -0.74101238848105438570E-04
   1    0.29070235174506856954E-17    0.75637117605027015532E+00    0.65425987957636166925E+00    0.60750553821453727370E-20   -0.56061562948641274155E-03   -0.74101238848103554769E-04
ATOMS        31
   8   -0.48670149466314799326E-18   -0.23925549493893459337E-16   -0.85233172834208448254E-02    0.17328175770568346922E-19   -0.72929927964111005299E-18    0.98828956238325907894E-05
   1    0.48118538365966685689E-17   -0.75580929040771371863E+00    0.65418359162208994384E+00   -0.28199070401322262582E-18    0.56308391043272283932E-03   -0.78438558927323623728E-04
   1    0.29138503137314292493E-17    0.75580929040771438476E+00    0.65418359162208894464E+00    0.69301978585217592400E-20   -0.56308391043271123835E-03   -0.78438558927322254923E-04
ATOMS        32
   8   -0.46925777917789691500E-18   -0.24649515689222748593E-16   -0.85131634215576956759E-02    0.17290297004528860705E-19   -0.73329909287497346038E-18    0.10420194792184540893E-04
   1    0.45279256999557532301E-17   -0.75524500822940421330E+00    0.65410300245850805378E+00   -0.28081732642874699543E-18    0.56540799061937643474E-03   -0.82702994582876270847E-04
   1    0.29208839131677294757E-17    0.75524500822940487943E+00    0.65410300245850705458E+00    0.63580926005325987710E-20   -0.56540799061936483378E-03   -0.82702994582874725859E-04
ATOMS        33
   8   -0.45212090065409021167E-18   -0.25392147679643404910E-16   -0.85024768938364737175E-02    0.16485891200518064862E-19   -0.73329909287497346038E-18    0.10948145086591111805E-04
   1    0.42502191837391739040E-17   -0.75467847442647506551E+00    0.65401818563292424269E+00   -0.26793759545948231129E-18    0.56758646578765207039E-03   -0.86893230102377781179E-04
   1    0.29265664989324944679E-17    0.75467847442647562062E+00    0.65401818563292324349E+00    0.62471764525485125985E-20   -0.56758646578764046942E-03   -0.86893230102375829615E-04
ATOMS        34
   8   -0.43628599677686074916E-18   -0.26116113874972697247E-16   -0.84912671313845129034E-02    0.15972366304275642464E-19   -0.71330002670565613456E-18    0.11466583314582820365E-04
   1    0.39920505090367876446E-17   -0.75410983529782904533E+00    0.65392921599830322599E+00   -0.26021876978177825180E-18    0.56961796487945011956E-03   -0.91007970259952546024E-04
   1    0.29333782660728263504E-17    0.75410983529782960044E+00    0.65392921599830222679E+00    0.66798388341583909167E-20   -0.56961796487943895228E-03   -0.91007970259950729986E-04
ATOMS        35
   8   -0.42017616804553890868E-18   -0.26818747733054716023E-16   -0.84795437272073091034E-02    0.16270088135538127580E-19   -0.70596703577690632966E-18    0.11975348950865866133E-04
   1    0.37297816441756176893E-17   -0.75353923849671633484E+00    0.65383616969240432315E+00   -0.26471477225213256020E-18    0.57150115072907470455E-03   -0.95045940998563597786E-04
   1    0.29399261766008110345E-17    0.75353923849671688995E+00    0.65383616969240332395E+00    0.64499244691436053490E-20   -0.57150115072906353727E-03   -0.95045940998562066350E-04
ATOMS        36
   8   -0.40374582050578450002E-18   -0.27528047946526510291E-16   -0.84673164334827816929E-02    0.17666822787280484843E-19   -0.70330049362099732720E-18    0.12474284217229583165E-04
   1    0.34626209645325233908E-17   -0.75296683299637090503E+00    0.65373912411630608066E+00   -0.28637371308375675237E-18    0.57323472094870486348E-03   -0.99005890064221468354E-04
   1    0.29462781150111134618E-17    0.75296683299637146014E+00    0.65373912411630508146E+00    0.59376601284035086225E-20   -0.57323472094869380462E-03   -0.99005890064219923366E-04
ATOMS        37
   8   -0.38484252247097797511E-18   -0.28225348720296716070E-16   -0.84545951587728512822E-02    0.18219287435708833456E-19   -0.70063395146508832475E-18    0.12963234165681107647E-04
   1    0.31570342180081042808E-17   -0.75239276905481888846E+00    0.65363815791227586338E+00   -0.29493608057419182242E-18    0.57481740875958329227E-03   -0.10288658766580691725E-03
   1    0.29518014968576180367E-17    0.75239276905481944357E+00    0.65363815791227486418E+00    0.57304255648598455945E-20   -0.57481740875957223341E-03   -0.10288658766580535870E-03
ATOMS        38
   8   -0.36730724563436679700E-18   -0.28929315849456691178E-16   -0.84413899651514211209E-02    0.16338833897468746834E-19   -0.69530086715327041613E-18    0.13442046762442887500E-04
   1    0.28727488033841397460E-17   -0.75181719817885173107E+00    0.65353335094097453339E+00   -0.26571811101356646716E-18    0.57624798383009508303E-03   -0.10668682714174279526E-03
   1    0.29577389661408329830E-17    0.75181719817885228618E+00    0.65353335094097353419E+00    0.63620206022135947006E-20   -0.57624798383008413259E-03   -0.10668682714174141290E-03
ATOMS        39
   8   -0.35216485467604046339E-18   -0.29615950454603249391E-16   -0.84277110652479659408E-02    0.15273315452731327908E-19   -0.68330142745167990508E-18    0.13910572972752239011E-04
   1    0.26255979959809712502E-17   -0.75124027308715857210E+00    0.65342478425799244146E+00   -0.24932380862521294785E-18    0.57752525312027079389E-03   -0.11040542563303143528E-03
   1    0.29645255380620454187E-17    0.75124027308715912721E+00    0.65342478425799133124E+00    0.68813302759237377029E-20   -0.57752525312026006029E-03   -0.11040542563302972766E-03
ATOMS        40
   8   -0.33676061472890416526E-18   -0.30295918704360047521E-16   -0.84135688192059181201E-02    0.15239096033852172692E-19   -0.67930161421781649770E-18    0.14368666846450490636E-04
   1    0.23741011861337137540E-17   -0.75066214767261096874E+00    0.65331254008970851554E+00   -0.24926603645128347106E-18    0.57864806173246762823E-03   -0.11404122476255752544E-03
   1    0.29715016266926806811E-17    0.75066214767261163487E+00    0.65331254008970751634E+00    0.73667434206246943795E-20   -0.57864806173245711147E-03   -0.11404122476255545190E-03
ATOMS        41
   8   -0.32168666260833614208E-18   -0.30974553683038886239E-16   -0.83989737315550636043E-02    0.14962346425071193896E-19   -0.71796647547849693700E-18    0.14816185604258670728E-04
   1    0.21270659230784039229E-17   -0.75008297696369352625E+00    0.65319670180846733931E+00   -0.24571118759222007261E-18    0.57961529376717130062E-03   -0.11759309131984159186E-03
   1    0.29792590249032945337E-17    0.75008297696369419238E+00    0.65319670180846622909E+00    0.82049067561111835080E-20   -0.57961529376716013334E-03   -0.11759309131983936925E-03
ATOMS        42
   8   -0.30683592187876176543E-18   -0.31731851655317034462E-16   -0.83839364479973994132E-02    0.14276200199981141579E-19   -0.78929647814906241564E-18    0.15252989724682207011E-04
   1    0.18826788109492736088E-17   -0.74950291708507665867E+00    0.65307735390706878054E+00   -0.23628137641945287285E-18    0.58042587318329387242E-03   -0.12105991795078540577E-03
   1    0.29879114402049029397E-17    0.74950291708507721378E+00    0.65307735390706767031E+00    0.96667053216272890448E-20   -0.58042587318328162094E-03   -0.12105991795078284434E-03
ATOMS        43
   8   -0.29313426220837380475E-18   -0.32553146639337012611E-16   -0.83684677521056998611E-02    0.13751483461507996869E-19   -0.85662666758576458319E-18    0.15678943027625299463E-04
   1    0.16545031702394984661E-17   -0.74892212521732703934E+00    0.65295458197256561750E+00   -0.22905652573190789076E-18    0.58107876467436664174E-03   -0.12444062382130173842E-03
   1    0.29985924355465490064E-17    0.74892212521732759445E+00    0.65295458197256450728E+00    0.10770997504239912651E-19   -0.58107876467435341447E-03   -0.12444062382129889239E-03
ATOMS        44
   8   -0.27933295495574576567E-18   -0.33445104990488568443E-16   -0.83525785619421484551E-02    0.13242367558176255164E-19   -0.89995797761928572865E-18    0.16093912770250513096E-04
   1    0.14245657594854577310E-17   -0.74834075955572798566E+00    0.65282847265942611781E+00   -0.22143649921237995061E-18    0.58157297451311845693E-03   -0.12773415537813324568E-03
   1    0.30094534352133826236E-17    0.74834075955572865180E+00    0.65282847265942511861E+00    0.11232472460458066168E-19   -0.58157297451310447072E-03   -0.12773415537813026413E-03
ATOMS        45
   8   -0.26664952709202132752E-18   -0.34353062594575581757E-16   -0.83362799265651998243E-02    0.11288481957125884436E-19   -0.91062414624292173847E-18    0.16497769735447911709E-04
   1    0.12116301718147386612E-17   -0.74775897926830081630E+00    0.65269911366180943801E+00   -0.19134749298221111535E-18    0.58190755142185587347E-03   -0.13093948705101402289E-03
   1    0.30210573804674649913E-17    0.74775897926830137141E+00    0.65269911366180832779E+00    0.12158661915580313420E-19   -0.58190755142184156200E-03   -0.13093948705101117686E-03
ATOMS        46
   8   -0.25675599104149402087E-18   -0.35266353282974414231E-16   -0.83195830224712542106E-02    0.10689947401080142466E-19   -0.89995797761928572865E-18    0.16890388312922031841E-04
   1    0.10418707735210355966E-17   -0.74717694445288429517E+00    0.65256659368532421439E+00   -0.18210932380079072074E-18    0.58208158746807052691E-03   -0.13405562189624058958E-03
   1    0.30337707590445429766E-17    0.74717694445288485028E+00    0.65256659368532310417E+00    0.12421390007873436204E-19   -0.58208158746805654070E-03   -0.13405562189623842118E-03
ATOMS        47
   8   -0.24526963228986103056E-18   -0.36152978549814157066E-16   -0.83024991499393574479E-02    0.11983349672909283430E-19   -0.84862704111803757583E-18    0.17271646592295996058E-04
   1    0.84741152421315726785E-18   -0.74659481609336475483E+00    0.65243100241801699202E+00   -0.20200737774090747071E-18    0.58209421892612702408E-03   -0.13708159233562116947E-03
   1    0.30459001604832118095E-17    0.74659481609336530994E+00    0.65243100241801588179E+00    0.11788495493783954474E-19   -0.58209421892611379681E-03   -0.13708159233561967869E-03
ATOMS        48
   8   -0.23278929169567549313E-18   -0.36963607365210490731E-16   -0.82850397292866632959E-02    0.12632861295958161526E-19   -0.83929414357235606723E-18    0.17641426452477791816E-04
   1    0.63785601803922070330E-18   -0.74601275601503203028E+00    0.65229243050065288667E+00   -0.21178618760450688498E-18    0.58194462715043947416E-03   -0.14001646086575736351E-03
   1    0.30573477500321107321E-17    0.74601275601503269641E+00    0.65229243050065177645E+00    0.11257218585720495939E-19   -0.58194462715042646374E-03   -0.14001646086575587273E-03
ATOMS        49
   8   -0.22000390969794476468E-18   -0.37831566836958875749E-16   -0.82672162970344013899E-02    0.11954733676053376969E-19   -0.89529152884644492620E-18    0.17999613651606618815E-04
   1    0.42383914900414354604E-18   -0.74543092683906386764E+00    0.65215096949628537093E+00   -0.20117781012422052062E-18    0.58163203944646129240E-03   -0.14285932077192967072E-03
   1    0.30684145976546526449E-17    0.74543092683906442275E+00    0.65215096949628437173E+00    0.11413166723904877040E-19   -0.58163203944644741462E-03   -0.14285932077192817994E-03
ATOMS        50
   8   -0.20887982434356872415E-18   -0.38754190422903387132E-16   -0.82490405019834487504E-02    0.11475447290315825219E-19   -0.92329022148348935568E-18    0.18346097916104640808E-04
   1    0.23550039779077961392E-18   -0.74484949193613925189E+00    0.65200671185910907823E+00   -0.19342191143327147240E-18    0.58115572994729821840E-03   -0.14560929683488403261E-03
   1    0.30801740834799202845E-17    0.74484949193613980700E+00    0.65200671185910796801E+00    0.11265267720836648910E-19   -0.58115572994728390693E-03   -0.14560929683488297551E-03
ATOMS        51
   8   -0.19705301511731308415E-18   -0.39678147279925857927E-16   -0.82305241012021936736E-02    0.12374587027761671707E-19   -0.93662293226303436796E-18    0.18680773030257736601E-04
   1    0.36995326137600589199E-19   -0.74426861537916932932E+00    0.65185975090261571996E+00   -0.20707428939105205604E-18    0.58051502048223904088E-03   -0.14826554604181695052E-03
   1    0.30909451330963259698E-17    0.74426861537916999545E+00    0.65185975090261460974E+00    0.10645062426909628497E-19   -0.58051502048222451257E-03   -0.14826554604181583922E-03
ATOMS        52
   8   -0.18413065028804538374E-18   -0.40627436287429452786E-16   -0.82116789559229345918E-02    0.12879483026904283142E-19   -0.97662106460166921220E-18    0.19003536926361764116E-04
   1   -0.17864818099132447408E-18   -0.74368846189517479051E+00    0.65171018076702535993E+00   -0.21490123893320267187E-18    0.57970928143764421502E-03   -0.15082725830184695029E-03
   1    0.31014642083337399297E-17    0.74368846189517545664E+00    0.65171018076702436073E+00    0.10457495558421671480E-19   -0.57970928143762892777E-03   -0.15082725830184570345E-03
ATOMS        53
   8   -0.17129404906350453893E-18   -0.41631389409129186336E-16   -0.81925170273494697659E-02    0.11394514547685773551E-19   -0.10179524680182584614E-17    0.19314291773329369189E-04