ATOMS
   1   0.4535487464   1.7512208698   0.0000000000
   8   0.0000000000   0.0000000000   0.0000000000
   1  -1.8090000000   0.0000000000   0.0000000000
BEGIN_BLOCK_DATAGRID3D
3D_ORBITAL_#001
DATAGRID_3D_G98
    50    50    50
  -7.0000000000  -7.0000000000  -7.0000000000
  14.0000000000   0.0000000000   0.0000000000
   0.0000000000  14.0000000000   0.0000000000
   0.0000000000   0.0000000000  14.0000000000
-0.000000000000000
-0.000000000000000
-0.000000000000000
-0.000000000000000
-0.000000000000000
-0.000000000000001
-0.000000000000002
-0.000000000000004
-0.000000000000008
-0.000000000000016
-0.000000000000030
-0.000000000000056
-0.000000000000100
-0.000000000000170
-0.000000000000276
-0.000000000000428
-0.000000000000637
-0.000000000000906
-0.000000000001234
-0.000000000001607
-0.000000000002003
-0.000000000002390
-0.000000000002727
-0.000000000002979
-0.000000000003113
-0.000000000003113
-0.000000000002979
-0.000000000002727
-0.000000000002390
-0.000000000002003
-0.000000000001607
-0.000000000001234
-0.000000000000906
-0.000000000000637
-0.000000000000428
-0.000000000000276
-0.000000000000170
-0.000000000000100
-0.000000000000056
-0.000000000000030
-0.000000000000016
-0.000000000000008
-0.000000000000004
-0.000000000000002
-0.000000000000001
-0.000000000000000
-0.000000000000000
-0.000000000000000
-0.000000000000000
-0.000000000000000
-0.000000000000000
-0.000000000000000
-0.000000000000000
-0.000000000000000
-0.000000000000001
-0.000000000000002
-0.000000000000005
-0.000000000000011
-0.000000000000022
-0.000000000000045
-0.000000000000088
-0.000000000000162
-0.000000000000288
-0.000000000000489
-0.000000000000794
-0.000000000001234
-0.000000000001834
-0.000000000002610
-0.000000000003553
-0.000000000004629
-0.000000000005771
-0.000000000006883
-0.000000000007856
-0.000000000008581
-0.000000000008967
-0.000000000008967
-0.000000000008581
-0.000000000007856
-0.000000000006883
-0.000000000005770
-0.000000000004629
-0.000000000003553
-0.000000000002610
-0.000000000001834
-0.000000000001234
-0.000000000000794
-0.000000000000489
-0.000000000000288
-0.000000000000162
-0.000000000000088
-0.000000000000045
-0.000000000000022
-0.000000000000011
-0.000000000000005
-0.000000000000002
-0.000000000000001
-0.000000000000000
-0.000000000000000
-0.000000000000000
-0.000000000000000
-0.000000000000000
-0.000000000000000
-0.000000000000000
-0.000000000000001
-0.000000000000002
-0.000000000000006
-0.000000000000013
-0.000000000000029
-0.000000000000062
-0.000000000000125
-0.000000000000242
-0.000000000000448
-0.000000000000794
-0.000000000001347
-0.000000000002188
-0.000000000003400
-0.000000000005056
-0.000000000007194
-0.000000000009794
-0.000000000012759
-0.000000000015905
-0.000000000018972
-0.000000000021655
-0.000000000023651
-0.000000000024717
-0.000000000024717
-0.000000000023651
-0.000000000021655
-0.000000000018972
-0.000000000015905
-0.000000000012759
-0.000000000009794
-0.000000000007193
-0.000000000005056
-0.000000000003400
-0.000000000002188
-0.000000000001347
-0.000000000000794
-0.000000000000448
-0.000000000000241
-0.000000000000125
-0.000000000000062
-0.000000000000029
-0.000000000000013
-0.000000000000006
-0.000000000000002
-0.000000000000001
-0.000000000000000
-0.000000000000000
-0.000000000000000
-0.000000000000000
-0.000000000000000
-0.000000000000001
-0.000000000000002
-0.000000000000006
-0.000000000000015
-0.000000000000035
-0.000000000000077
-0.000000000000162
-0.000000000000329
-0.000000000000637
-0.000000000001180
-0.000000000002094
-0.000000000003553
-0.000000000005771
-0.000000000008967
-0.000000000013334
-0.000000000018973
-0.000000000025831
-0.000000000033652
-0.000000000041950
-0.000000000050039
-0.000000000057114
-0.000000000062378
-0.000000000065189
-0.000000000065189
-0.000000000062378
-0.000000000057114
-0.000000000050039
-0.000000000041949
-0.000000000033651
-0.000000000025831
-0.000000000018972
-0.000000000013334
-0.000000000008967
-0.000000000005770
-0.000000000003553
-0.000000000002094
-0.000000000001180
-0.000000000000637
-0.000000000000329
-0.000000000000162
-0.000000000000077
-0.000000000000035
-0.000000000000015
-0.000000000000006
-0.000000000000002
-0.000000000000001
-0.000000000000000
-0.000000000000000
-0.000000000000000
-0.000000000000001
-0.000000000000002
-0.000000000000006
-0.000000000000016
-0.000000000000038
-0.000000000000088
-0.000000000000194
-0.000000000000410
-0.000000000000830
-0.000000000001607
-0.000000000002979
-0.000000000005284
-0.000000000008968
-0.000000000014563
-0.000000000022631
-0.000000000033652
-0.000000000047881
-0.000000000065189
-0.000000000084927
-0.000000000105869
-0.000000000126284
-0.000000000144139
-0.000000000157424
-0.000000000164519
-0.000000000164519
-0.000000000157424
-0.000000000144139
-0.000000000126283
-0.000000000105869
-0.000000000084926
-0.000000000065189
-0.000000000047881
-0.000000000033651
-0.000000000022631
-0.000000000014563
-0.000000000008967
-0.000000000005283
-0.000000000002979
-0.000000000001607
-0.000000000000830
-0.000000000000410
-0.000000000000194
-0.000000000000088
-0.000000000000038
-0.000000000000016
-0.000000000000006
-0.000000000000002
-0.000000000000001
-0.000000000000000
-0.000000000000001
-0.000000000000002
-0.000000000000006
-0.000000000000015
-0.000000000000038
-0.000000000000092
-0.000000000000212
-0.000000000000468
-0.000000000000990
-0.000000000002004
-0.000000000003881
-0.000000000007194
-0.000000000012760
-0.000000000021655
-0.000000000035169
-0.000000000054651
-0.000000000081265
-0.000000000115627
-0.000000000157425
-0.000000000205088
-0.000000000255661
-0.000000000304961
-0.000000000348079
-0.000000000380161
-0.000000000397294
-0.000000000397294
-0.000000000380160
-0.000000000348079
-0.000000000304960
-0.000000000255660
-0.000000000205088
-0.000000000157424
-0.000000000115626
-0.000000000081264
-0.000000000054651
-0.000000000035168
-0.000000000021655
-0.000000000012759
-0.000000000007193
-0.000000000003881
-0.000000000002003
-0.000000000000990
-0.000000000000468
-0.000000000000212
-0.000000000000092
-0.000000000000038
-0.000000000000015
-0.000000000000006
-0.000000000000002
-0.000000000000001
-0.000000000000002
-0.000000000000005
-0.000000000000013
-0.000000000000035
-0.000000000000088
-0.000000000000212
-0.000000000000489
-0.000000000001081
-0.000000000002287
-0.000000000004629
-0.000000000008968
-0.000000000016623
-0.000000000029484
-0.000000000050040
-0.000000000081265
-0.000000000126285
-0.000000000187782
-0.000000000267184
-0.000000000363767
-0.000000000473906
-0.000000000590766
-0.000000000704685
-0.000000000804321
-0.000000000878453
-0.000000000918044
-0.000000000918044
-0.000000000878453
-0.000000000804320
-0.000000000704684
-0.000000000590765
-0.000000000473905
-0.000000000363766
-0.000000000267183
-0.000000000187780
-0.000000000126283
-0.000000000081264
-0.000000000050039
-0.000000000029483
-0.000000000016622
-0.000000000008967
-0.000000000004629
-0.000000000002286
-0.000000000001081
-0.000000000000489
-0.000000000000212
-0.000000000000088
-0.000000000000035
-0.000000000000013
-0.000000000000005
-0.000000000000002
-0.000000000000004
-0.000000000000011
-0.000000000000029
-0.000000000000077
-0.000000000000194
-0.000000000000468
-0.000000000001081
-0.000000000002390
-0.000000000005056
-0.000000000010236
-0.000000000019828
-0.000000000036754
-0.000000000065190
-0.000000000110642
-0.000000000179684
-0.000000000279226
-0.000000000415201
-0.000000000590767
-0.000000000804322
-0.000000001047848
-0.000000001306238
-0.000000001558122
-0.000000001778426
-0.000000001942340
-0.000000002029878
-0.000000002029878
-0.000000001942339
-0.000000001778425
-0.000000001558120
-0.000000001306236
-0.000000001047846
-0.000000000804320
-0.000000000590765
-0.000000000415199
-0.000000000279224
-0.000000000179682
-0.000000000110640
-0.000000000065189
-0.000000000036753
-0.000000000019827
-0.000000000010235
-0.000000000005056
-0.000000000002390
-0.000000000001081
-0.000000000000468
-0.000000000000194
-0.000000000000077
-0.000000000000029
-0.000000000000011
-0.000000000000004
-0.000000000000008
-0.000000000000022
-0.000000000000062
-0.000000000000163
-0.000000000000410
-0.000000000000990
-0.000000000002287
-0.000000000005056
-0.000000000010697
-0.000000000021656
-0.000000000041951
-0.000000000077761
-0.000000000137925
-0.000000000234088
-0.000000000380163
-0.000000000590768
-0.000000000878456
-0.000000001249908
-0.000000001701733
-0.000000002216971
-0.000000002763656
-0.000000003296577
-0.000000003762682
-0.000000004109482
-0.000000004294691
-0.000000004294690
-0.000000004109481
-0.000000003762680
-0.000000003296574
-0.000000002763653
-0.000000002216968
-0.000000001701729
-0.000000001249904
-0.000000000878452
-0.000000000590765
-0.000000000380160
-0.000000000234085
-0.000000000137923
-0.000000000077759
-0.000000000041949
-0.000000000021655
-0.000000000010696
-0.000000000005056
-0.000000000002286
-0.000000000000990
-0.000000000000410
-0.000000000000162
-0.000000000000062
-0.000000000000022
-0.000000000000008
-0.000000000000016
-0.000000000000045
-0.000000000000125
-0.000000000000329
-0.000000000000830
-0.000000000002004
-0.000000000004630
-0.000000000010236
-0.000000000021656
-0.000000000043842
-0.000000000084929
-0.000000000157427
-0.000000000279228
-0.000000000473909
-0.000000000769638
-0.000000001196007
-0.000000001778429
-0.000000002530433
-0.000000003445151
-0.000000004488250
-0.000000005595012
-0.000000006673908
-0.000000007617537
-0.000000008319633
-0.000000008694587
-0.000000008694587
-0.000000008319632
-0.000000007617535
-0.000000006673904
-0.000000005595007
-0.000000004488245
-0.000000003445146
-0.000000002530427
-0.000000001778424
-0.000000001196002
-0.000000000769633
-0.000000000473904
-0.000000000279224
-0.000000000157424
-0.000000000084926
-0.000000000043840
-0.000000000021655
-0.000000000010235
-0.000000000004629
-0.000000000002003
-0.000000000000830
-0.000000000000329
-0.000000000000125
-0.000000000000045
-0.000000000000016
-0.000000000000031
-0.000000000000088
-0.000000000000242
-0.000000000000637
-0.000000000001608
-0.000000000003882
-0.000000000008968
-0.000000000019829
-0.000000000041952
-0.000000000084929
-0.000000000164522
-0.000000000304964
-0.000000000540916
-0.000000000918049
-0.000000001490933
-0.000000002316891
-0.000000003445154
-0.000000004901927
-0.000000006673911
-0.000000008694592
-0.000000010838601
-0.000000012928628
-0.000000014756618
-0.000000016116712
-0.000000016843069
-0.000000016843068
-0.000000016116709
-0.000000014756614
-0.000000012928622
-0.000000010838594
-0.000000008694585
-0.000000006673903
-0.000000004901920
-0.000000003445146
-0.000000002316884
-0.000000001490926
-0.000000000918043
-0.000000000540910
-0.000000000304960
-0.000000000164519
-0.000000000084926
-0.000000000041949
-0.000000000019827
-0.000000000008967
-0.000000000003881
-0.000000000001607
-0.000000000000637
-0.000000000000241
-0.000000000000088
-0.000000000000030
-0.000000000000057
-0.000000000000163
-0.000000000000448
-0.000000000001181
-0.000000000002980
-0.000000000007195
-0.000000000016624
-0.000000000036755
-0.000000000077763
-0.000000000157428
-0.000000000304965
-0.000000000565295
-0.000000001002665
-0.000000001701738
-0.000000002763663
-0.000000004294700
-0.000000006386102
-0.000000009086449
-0.000000012371085
-0.000000016116718
-0.000000020090958
-0.000000023965134
-0.000000027353587
-0.000000029874724
-0.000000031221135
-0.000000031221134
-0.000000029874720
-0.000000027353581
-0.000000023965126
-0.000000020090948
-0.000000016116708
-0.000000012371074
-0.000000009086438
-0.000000006386091
-0.000000004294689
-0.000000002763653
-0.000000001701729
-0.000000001002658
-0.000000000565288
-0.000000000304960
-0.000000000157424
-0.000000000077759
-0.000000000036753
-0.000000000016622
-0.000000000007193
-0.000000000002979
-0.000000000001180
-0.000000000000448
-0.000000000000162
-0.000000000000056
-0.000000000000100
-0.000000000000288
-0.000000000000794
-0.000000000002094
-0.000000000005285
-0.000000000012761
-0.000000000029485
-0.000000000065192
-0.000000000137927
-0.000000000279230
-0.000000000540918
-0.000000001002667
-0.000000001778435
-0.000000003018387
-0.000000004901933
-0.000000007617548
-0.000000011327090
-0.000000016116723
-0.000000021942716
-0.000000028586383
-0.000000035635533
-0.000000042507199
-0.000000048517333
-0.000000052989100
-0.000000055377245
-0.000000055377243
-0.000000052989094
-0.000000048517325
-0.000000042507188
-0.000000035635519
-0.000000028586368
-0.000000021942700
-0.000000016116707
-0.000000011327074
-0.000000007617533
-0.000000004901919
-0.000000003018375
-0.000000001778424
-0.000000001002658
-0.000000000540910
-0.000000000279224
-0.000000000137923
-0.000000000065189
-0.000000000029483
-0.000000000012759
-0.000000000005283
-0.000000000002094
-0.000000000000794
-0.000000000000288
-0.000000000000100
-0.000000000000170
-0.000000000000489
-0.000000000001348
-0.000000000003554
-0.000000000008969
-0.000000000021657
-0.000000000050042
-0.000000000110645
-0.000000000234091
-0.000000000473913
-0.000000000918053
-0.000000001701742
-0.000000003018389
-0.000000005122859
-0.000000008319649
-0.000000012928642
-0.000000019224546
-0.000000027353601
-0.000000037241585
-0.000000048517343
-0.000000060481293
-0.000000072144016
-0.000000082344529
-0.000000089934095
-0.000000093987301
-0.000000093987298
-0.000000089934088
-0.000000082344518
-0.000000072144001
-0.000000060481275
-0.000000048517323
-0.000000037241563
-0.000000027353579
-0.000000019224524
-0.000000012928621
-0.000000008319630
-0.000000005122842
-0.000000003018375
-0.000000001701729
-0.000000000918043
-0.000000000473904
-0.000000000234085
-0.000000000110640
-0.000000000050039
-0.000000000021655
-0.000000000008967
-0.000000000003553
-0.000000000001347
-0.000000000000489
-0.000000000000170
-0.000000000000276
-0.000000000000794
-0.000000000002189
-0.000000000005772
-0.000000000014565
-0.000000000035171
-0.000000000081269
-0.000000000179689
-0.000000000380169
-0.000000000769644
-0.000000001490940
-0.000000002763670
-0.000000004901939
-0.000000008319653
-0.000000013511322
-0.000000020996447
-0.000000031221159
-0.000000044422958
-0.000000060481302
-0.000000078793429
-0.000000098223197
-0.000000117163765
-0.000000133729666
-0.000000146055322
-0.000000152637834
-0.000000152637831
-0.000000146055313
-0.000000133729651
-0.000000117163745
-0.000000098223173
-0.000000078793402
-0.000000060481274
-0.000000044422928
-0.000000031221130
-0.000000020996419
-0.000000013511297
-0.000000008319630
-0.000000004901920
-0.000000002763653
-0.000000001490926
-0.000000000769633
-0.000000000380160
-0.000000000179682
-0.000000000081264
-0.000000000035168
-0.000000000014563
-0.000000000005770
-0.000000000002188
-0.000000000000794
-0.000000000000276
-0.000000000000429
-0.000000000001234
-0.000000000003401
-0.000000000008969
-0.000000000022634
-0.000000000054655
-0.000000000126290
-0.000000000279233
-0.000000000590776
-0.000000001196016
-0.000000002316902
-0.000000004294711
-0.000000007617559
-0.000000012928651
-0.000000020996452
-0.000000032628260
-0.000000048517360
-0.000000069032822
-0.000000093987329
-0.000000122444190
-0.000000152637854
-0.000000182071308
-0.000000207814552
-0.000000226968498
-0.000000237197657
-0.000000237197653
-0.000000226968487
-0.000000207814533
-0.000000182071282
-0.000000152637824
-0.000000122444155
-0.000000093987292
-0.000000069032784
-0.000000048517323
-0.000000032628225
-0.000000020996419
-0.000000012928621
-0.000000007617534
-0.000000004294689
-0.000000002316884
-0.000000001196002
-0.000000000590765
-0.000000000279224
-0.000000000126283
-0.000000000054651
-0.000000000022631
-0.000000000008967
-0.000000000003400
-0.000000000001234
-0.000000000000428
-0.000000000000637
-0.000000000001835
-0.000000000005057
-0.000000000013337
-0.000000000033655
-0.000000000081270
-0.000000000187788
-0.000000000415210
-0.000000000878466
-0.000000001778442
-0.000000003445168
-0.000000006386118
-0.000000011327107
-0.000000019224561
-0.000000031221172
-0.000000048517367
-0.000000072144046
-0.000000102650005
-0.000000139756709
-0.000000182071324
-0.000000226968519
-0.000000270735301
-0.000000309014839
-0.000000337496260
-0.000000352706755
-0.000000352706750
-0.000000337496245
-0.000000309014815
-0.000000270735269
-0.000000226968481
-0.000000182071280
-0.000000139756663
-0.000000102649958
-0.000000072143999
-0.000000048517323
-0.000000031221131
-0.000000019224525
-0.000000011327075
-0.000000006386091
-0.000000003445146
-0.000000001778424
-0.000000000878453
-0.000000000415199
-0.000000000187780
-0.000000000081264
-0.000000000033651
-0.000000000013334
-0.000000000005056
-0.000000000001834
-0.000000000000637
-0.000000000000907
-0.000000000002611
-0.000000000007196
-0.000000000018976
-0.000000000047886
-0.000000000115633
-0.000000000267192
-0.000000000590778
-0.000000001249922
-0.000000002530450
-0.000000004901947
-0.000000009086472
-0.000000016116747
-0.000000027353625
-0.000000044422980
-0.000000069032840
-0.000000102650016
-0.000000146055365
-0.000000198852571
-0.000000259059845
-0.000000322941739
-0.000000385215226
-0.000000439681198
-0.000000480205939
-0.000000501848165
-0.000000501848159
-0.000000480205920
-0.000000439681169
-0.000000385215187
-0.000000322941692
-0.000000259059792
-0.000000198852515
-0.000000146055307
-0.000000102649959
-0.000000069032785
-0.000000044422929
-0.000000027353580
-0.000000016116708
-0.000000009086438
-0.000000004901920
-0.000000002530428
-0.000000001249905
-0.000000000590765
-0.000000000267183
-0.000000000115626
-0.000000000047881
-0.000000000018972
-0.000000000007193
-0.000000000002610
-0.000000000000906
-0.000000000001235
-0.000000000003555
-0.000000000009796
-0.000000000025834
-0.000000000065195
-0.000000000157432
-0.000000000363777
-0.000000000804335
-0.000000001701750
-0.000000003445173
-0.000000006673937
-0.000000012371115
-0.000000021942748
-0.000000037241619
-0.000000060481335
-0.000000093987358
-0.000000139756732
-0.000000198852584
-0.000000270735335
-0.000000352706802
-0.000000439681221
-0.000000524465814
-0.000000598620569
-0.000000653794509
-0.000000683260137
-0.000000683260129
-0.000000653794488
-0.000000598620535
-0.000000524465767
-0.000000439681165
-0.000000352706739
-0.000000270735268
-0.000000198852516
-0.000000139756664
-0.000000093987293
-0.000000060481275
-0.000000037241565
-0.000000021942701
-0.000000012371075
-0.000000006673904
-0.000000003445147
-0.000000001701730
-0.000000000804320
-0.000000000363766
-0.000000000157424
-0.000000000065189
-0.000000000025831
-0.000000000009794
-0.000000000003553
-0.000000000001234
-0.000000000001608
-0.000000000004631
-0.000000000012762
-0.000000000033656
-0.000000000084933
-0.000000000205097
-0.000000000473918
-0.000000001047865
-0.000000002216992
-0.000000004488276
-0.000000008694624
-0.000000016116755
-0.000000028586425
-0.000000048517387
-0.000000078793474
-0.000000122444233
-0.000000182071361
-0.000000259059873
-0.000000352706818
-0.000000459497076
-0.000000572805047
-0.000000683260171
-0.000000779867025
-0.000000851746175
-0.000000890133215
-0.000000890133207
-0.000000851746150
-0.000000779866985
-0.000000683260118
-0.000000572804983
-0.000000459497003
-0.000000352706740
-0.000000259059794
-0.000000182071283
-0.000000122444158
-0.000000078793405
-0.000000048517325
-0.000000028586370
-0.000000016116709
-0.000000008694586
-0.000000004488246
-0.000000002216969
-0.000000001047847
-0.000000000473905
-0.000000000205088
-0.000000000084927
-0.000000000033651
-0.000000000012759
-0.000000000004629
-0.000000000001607
-0.000000000002005
-0.000000000005773
-0.000000000015909
-0.000000000041955
-0.000000000105876
-0.000000000255672
-0.000000000590781
-0.000000001306257
-0.000000002763681
-0.000000005595043
-0.000000010838639
-0.000000020091002
-0.000000035635583
-0.000000060481348
-0.000000098223255
-0.000000152637912
-0.000000226968573
-0.000000322941785
-0.000000439681255
-0.000000572805066
-0.000000714053803
-0.000000851746204
-0.000000972175473
-0.000001061779399
-0.000001109632353
-0.000001109632343
-0.000001061779371
-0.000000972175428
-0.000000851746145
-0.000000714053731
-0.000000572804985
-0.000000439681168
-0.000000322941696
-0.000000226968485
-0.000000152637828
-0.000000098223177
-0.000000060481278
-0.000000035635522
-0.000000020090950
-0.000000010838596
-0.000000005595009
-0.000000002763654
-0.000000001306237
-0.000000000590766
-0.000000000255661
-0.000000000105869
-0.000000000041950
-0.000000000015905
-0.000000000005770
-0.000000000002003
-0.000000000002391
-0.000000000006886
-0.000000000018976
-0.000000000050045
-0.000000000126292
-0.000000000304972
-0.000000000704701
-0.000000001558143
-0.000000003296605
-0.000000006673943
-0.000000012928672
-0.000000023965186
-0.000000042507259
-0.000000072144082
-0.000000117163836
-0.000000182071380
-0.000000270735371
-0.000000385215290
-0.000000524465867
-0.000000683260210
-0.000000851746225
-0.000001015990129
-0.000001159642016
-0.000001266524449
-0.000001323604985
-0.000001323604975
-0.000001266524419
-0.000001159641968
-0.000001015990065
-0.000000851746147
-0.000000683260122
-0.000000524465773
-0.000000385215193
-0.000000270735275
-0.000000182071288
-0.000000117163750
-0.000000072144005
-0.000000042507192
-0.000000023965129
-0.000000012928624
-0.000000006673906
-0.000000003296575
-0.000000001558121
-0.000000000704684
-0.000000000304960
-0.000000000126284
-0.000000000050039
-0.000000000018972
-0.000000000006883
-0.000000000002390
-0.000000000002729
-0.000000000007859
-0.000000000021659
-0.000000000057120
-0.000000000144148
-0.000000000348092
-0.000000000804338
-0.000000001778450
-0.000000003762714
-0.000000007617577
-0.000000014756667
-0.000000027353646
-0.000000048517401
-0.000000082344605
-0.000000133729748
-0.000000207814638
-0.000000309014924
-0.000000439681279
-0.000000598620642
-0.000000779867085
-0.000000972175515
-0.000001159642039
-0.000001323605018
-0.000001445599671
-0.000001510750885
-0.000001510750874
-0.000001445599640
-0.000001323604968
-0.000001159641971
-0.000000972175433
-0.000000779866992
-0.000000598620542
-0.000000439681177
-0.000000309014823
-0.000000207814541
-0.000000133729658
-0.000000082344523
-0.000000048517330
-0.000000027353585
-0.000000014756617
-0.000000007617537
-0.000000003762682
-0.000000001778426
-0.000000000804320
-0.000000000348079
-0.000000000144139
-0.000000000057114
-0.000000000021655
-0.000000000007856
-0.000000000002727
-0.000000000002981
-0.000000000008583
-0.000000000023655
-0.000000000062384
-0.000000000157434
-0.000000000380174
-0.000000000878472
-0.000000001942366
-0.000000004109516
-0.000000008319676
-0.000000016116765
-0.000000029874788
-0.000000052989174
-0.000000089934180
-0.000000146055414
-0.000000226968596
-0.000000337496360
-0.000000480206036
-0.000000653794600
-0.000000851746254
-0.000001061779463
-0.000001266524494
-0.000001445599694
-0.000001578838411
-0.000001649994515
-0.000001649994504
-0.000001578838380
-0.000001445599643
-0.000001266524425
-0.000001061779380
-0.000000851746160
-0.000000653794498
-0.000000480205931
-0.000000337496256
-0.000000226968496
-0.000000146055321
-0.000000089934095
-0.000000052989100
-0.000000029874724
-0.000000016116713
-0.000000008319634
-0.000000004109483
-0.000000001942341
-0.000000000878454
-0.000000000380161
-0.000000000157424
-0.000000000062378
-0.000000000023651
-0.000000000008581
-0.000000000002979
-0.000000000003115
-0.000000000008970
-0.000000000024721
-0.000000000065196
-0.000000000164529
-0.000000000397308
-0.000000000918064
-0.000000002029905
-0.000000004294726
-0.000000008694632
-0.000000016843125
-0.000000031221203
-0.000000055377324
-0.000000093987392
-0.000000152637935
-0.000000237197765
-0.000000352706867
-0.000000501848276
-0.000000683260244
-0.000000890133313
-0.000001109632437
-0.000001323605052
-0.000001510750931
-0.000001649994539
-0.000001724357553
-0.000001724357542
-0.000001649994508
-0.000001510750881
-0.000001323604984
-0.000001109632355
-0.000000890133220
-0.000000683260143
-0.000000501848172
-0.000000352706763
-0.000000237197665
-0.000000152637841
-0.000000093987307
-0.000000055377250
-0.000000031221140
-0.000000016843072
-0.000000008694590
-0.000000004294693
-0.000000002029880
-0.000000000918045
-0.000000000397295
-0.000000000164519
-0.000000000065189
-0.000000000024717
-0.000000000008967
-0.000000000003113
-0.000000000003115
-0.000000000008970
-0.000000000024721
-0.000000000065196
-0.000000000164529
-0.000000000397308
-0.000000000918064
-0.000000002029905
-0.000000004294726
-0.000000008694632
-0.000000016843126
-0.000000031221204
-0.000000055377325
-0.000000093987393
-0.000000152637937
-0.000000237197768
-0.000000352706870
-0.000000501848281
-0.000000683260250
-0.000000890133320
-0.000001109632445
-0.000001323605061
-0.000001510750943
-0.000001649994551
-0.000001724357566
-0.000001724357556
-0.000001649994522
-0.000001510750895
-0.000001323604997
-0.000001109632367
-0.000000890133232
-0.000000683260153
-0.000000501848181
-0.000000352706770
-0.000000237197671
-0.000000152637846
-0.000000093987311
-0.000000055377253
-0.000000031221142
-0.000000016843074
-0.000000008694591
-0.000000004294693
-0.000000002029880
-0.000000000918045
-0.000000000397295
-0.000000000164519
-0.000000000065189
-0.000000000024717
-0.000000000008967
-0.000000000003113
-0.000000000002981
-0.000000000008583
-0.000000000023655
-0.000000000062384
-0.000000000157434
-0.000000000380175
-0.000000000878472
-0.000000001942366
-0.000000004109517
-0.000000008319677
-0.000000016116766
-0.000000029874790
-0.000000052989177
-0.000000089934184
-0.000000146055420
-0.000000226968605
-0.000000337496371
-0.000000480206050
-0.000000653794618
-0.000000851746276
-0.000001061779488
-0.000001266524523
-0.000001445599727
-0.000001578838448
-0.000001649994554
-0.000001649994545
-0.000001578838421
-0.000001445599684
-0.000001266524465
-0.000001061779417
-0.000000851746194
-0.000000653794529
-0.000000480205958
-0.000000337496278
-0.000000226968514
-0.000000146055336
-0.000000089934107
-0.000000052989109
-0.000000029874731
-0.000000016116717
-0.000000008319637
-0.000000004109485
-0.000000001942342
-0.000000000878455
-0.000000000380162
-0.000000000157425
-0.000000000062378
-0.000000000023651
-0.000000000008581
-0.000000000002979
-0.000000000002729
-0.000000000007859
-0.000000000021659
-0.000000000057120
-0.000000000144148
-0.000000000348092
-0.000000000804339
-0.000000001778450
-0.000000003762715
-0.000000007617579
-0.000000014756669
-0.000000027353649
-0.000000048517406
-0.000000082344612
-0.000000133729758
-0.000000207814651
-0.000000309014942
-0.000000439681302
-0.000000598620670
-0.000000779867119
-0.000000972175556
-0.000001159642086
-0.000001323605071
-0.000001445599730
-0.000001510750948
-0.000001510750940
-0.000001445599706
-0.000001323605034
-0.000001159642035
-0.000000972175493
-0.000000779867047
-0.000000598620591
-0.000000439681219
-0.000000309014859
-0.000000207814570
-0.000000133729682
-0.000000082344542
-0.000000048517344
-0.000000027353595
-0.000000014756624
-0.000000007617542
-0.000000003762686
-0.000000001778428
-0.000000000804322
-0.000000000348080
-0.000000000144140
-0.000000000057114
-0.000000000021655
-0.000000000007857
-0.000000000002728
-0.000000000002391
-0.000000000006886
-0.000000000018976
-0.000000000050045
-0.000000000126292
-0.000000000304973
-0.000000000704701
-0.000000001558144
-0.000000003296606
-0.000000006673945
-0.000000012928674
-0.000000023965191
-0.000000042507266
-0.000000072144091
-0.000000117163849
-0.000000182071397
-0.000000270735394
-0.000000385215320
-0.000000524465904
-0.000000683260255
-0.000000851746279
-0.000001015990192
-0.000001159642087
-0.000001266524527
-0.000001323605068
-0.000001323605062
-0.000001266524508
-0.000001159642056
-0.000001015990149
-0.000000851746227
-0.000000683260195
-0.000000524465838
-0.000000385215250
-0.000000270735323
-0.000000182071327
-0.000000117163782
-0.000000072144030
-0.000000042507211
-0.000000023965143
-0.000000012928634
-0.000000006673913
-0.000000003296580
-0.000000001558124
-0.000000000704686
-0.000000000304962
-0.000000000126285
-0.000000000050039
-0.000000000018973
-0.000000000006883
-0.000000000002390
-0.000000000002005
-0.000000000005773
-0.000000000015909
-0.000000000041955
-0.000000000105877
-0.000000000255672
-0.000000000590781
-0.000000001306258
-0.000000002763683
-0.000000005595045
-0.000000010838642
-0.000000020091008
-0.000000035635591
-0.000000060481359
-0.000000098223270
-0.000000152637933
-0.000000226968601
-0.000000322941821
-0.000000439681300
-0.000000572805121
-0.000000714053868
-0.000000851746279
-0.000000972175558
-0.000001061779492
-0.000001109632453
-0.000001109632448
-0.000001061779478
-0.000000972175533
-0.000000851746246
-0.000000714053826
-0.000000572805072
-0.000000439681246
-0.000000322941764
-0.000000226968542
-0.000000152637875
-0.000000098223215
-0.000000060481307
-0.000000035635545
-0.000000020090967
-0.000000010838608
-0.000000005595017
-0.000000002763660
-0.000000001306240
-0.000000000590768
-0.000000000255662
-0.000000000105870
-0.000000000041950
-0.000000000015906
-0.000000000005771
-0.000000000002003
-0.000000000001608
-0.000000000004631
-0.000000000012762
-0.000000000033656
-0.000000000084933
-0.000000000205098
-0.000000000473919
-0.000000001047866
-0.000000002216994
-0.000000004488279
-0.000000008694628
-0.000000016116761
-0.000000028586433
-0.000000048517400
-0.000000078793492
-0.000000122444257
-0.000000182071392
-0.000000259059913
-0.000000352706868
-0.000000459497137
-0.000000572805120
-0.000000683260256
-0.000000779867120
-0.000000851746279
-0.000000890133327
-0.000000890133324
-0.000000851746269
-0.000000779867103
-0.000000683260232
-0.000000572805090
-0.000000459497101
-0.000000352706828
-0.000000259059869
-0.000000182071347
-0.000000122444211
-0.000000078793447
-0.000000048517358
-0.000000028586395
-0.000000016116728
-0.000000008694599
-0.000000004488255
-0.000000002216975
-0.000000001047851
-0.000000000473908
-0.000000000205090
-0.000000000084928
-0.000000000033652
-0.000000000012759
-0.000000000004629
-0.000000000001607
-0.000000000001235
-0.000000000003555
-0.000000000009796
-0.000000000025835
-0.000000000065195
-0.000000000157433
-0.000000000363778