ATOMS
   1   0.4535487464   1.7512208698   0.0000000000
   8   0.0000000000   0.0000000000   0.0000000000
   1  -1.8090000000   0.0000000000   0.0000000000
BEGIN_BLOCK_DATAGRID3D
3D_ORBITAL_#001
DATAGRID_3D_G98
    50    50    50
  -7.0000000000  -7.0000000000  -7.0000000000
  14.0000000000   0.0000000000   0.0000000000
   0.0000000000  14.0000000000   0.0000000000
   0.0000000000   0.0000000000  14.0000000000
 0.000000000315689
 0.000000000502711
 0.000000000779730
 0.000000001177980
 0.000000001733407
 0.000000002484464
 0.000000003468452
 0.000000004716403
 0.000000006246835
 0.000000008059080
 0.000000010127208
 0.000000012395849
 0.000000014779140
 0.000000017163800
 0.000000019416696
 0.000000021396489
 0.000000022968063
 0.000000024017760
 0.000000024467023
 0.000000024282181
 0.000000023478675
 0.000000022118972
 0.000000020304568
 0.000000018163481
 0.000000015835378
 0.000000013456735
 0.000000011148153
 0.000000009005399
 0.000000007094828
 0.000000005453084
 0.000000004090248
 0.000000002995277
 0.000000002142430
 0.000000001497592
 0.000000001023684
 0.000000000684740
 0.000000000448546
 0.000000000287984
 0.000000000181377
 0.000000000112157
 0.000000000068149
 0.000000000040720
 0.000000000023941
 0.000000000013856
 0.000000000007896
 0.000000000004430
 0.000000000002447
 0.000000000001330
 0.000000000000711
 0.000000000000373
 0.000000000593908
 0.000000000945757
 0.000000001466926
 0.000000002216180
 0.000000003261155
 0.000000004674210
 0.000000006525548
 0.000000008873589
 0.000000011753231
 0.000000015163291
 0.000000019055094
 0.000000023324592
 0.000000027810396
 0.000000032299543
 0.000000036541720
 0.000000040271148
 0.000000043233710
 0.000000045215577
 0.000000046068857
 0.000000045729984
 0.000000044227660
 0.000000041678957
 0.000000038274284
 0.000000034253916
 0.000000029880076
 0.000000025409067
 0.000000021067476
 0.000000017035349
 0.000000013437601
 0.000000010343437
 0.000000007772245
 0.000000005703768
 0.000000004090137
 0.000000002867710
 0.000000001967199
 0.000000001321306
 0.000000000869670
 0.000000000561400
 0.000000000355741
 0.000000000221466
 0.000000000135557
 0.000000000081633
 0.000000000048389
 0.000000000028241
 0.000000000016228
 0.000000000009181
 0.000000000005111
 0.000000000002798
 0.000000000001505
 0.000000000000795
 0.000000001088289
 0.000000001733035
 0.000000002688060
 0.000000004061061
 0.000000005975996
 0.000000008565499
 0.000000011958266
 0.000000016261436
 0.000000021539082
 0.000000027789203
 0.000000034922825
 0.000000042749555
 0.000000050973970
 0.000000059206164
 0.000000066987780
 0.000000073832067
 0.000000079273541
 0.000000082920374
 0.000000084501345
 0.000000083899500
 0.000000081166698
 0.000000076516483
 0.000000070296619
 0.000000062946172
 0.000000054944486
 0.000000046760243
 0.000000038807995
 0.000000031417400
 0.000000024817529
 0.000000019135767
 0.000000014408553
 0.000000010599888
 0.000000007623267
 0.000000005363229
 0.000000003693823
 0.000000002492516
 0.000000001649226
 0.000000001070977
 0.000000000683136
 0.000000000428357
 0.000000000264223
 0.000000000160410
 0.000000000095879
 0.000000000056428
 0.000000000032695
 0.000000000018644
 0.000000000010457
 0.000000000005765
 0.000000000003122
 0.000000000001659
 0.000000001942388
 0.000000003093158
 0.000000004797743
 0.000000007248395
 0.000000010666402
 0.000000015288568
 0.000000021344714
 0.000000029026244
 0.000000038447776
 0.000000049606096
 0.000000062342854
 0.000000076318799
 0.000000091007302
 0.000000105713152
 0.000000119618946
 0.000000131856492
 0.000000141595334
 0.000000148136134
 0.000000150994357
 0.000000149960276
 0.000000145124906
 0.000000136867335
 0.000000125805845
 0.000000112721524
 0.000000098467465
 0.000000083878133
 0.000000069692039
 0.000000056497006
 0.000000044702237
 0.000000034536303
 0.000000026066147
 0.000000019229883
 0.000000013875658
 0.000000009799842
 0.000000006779758
 0.000000004598361
 0.000000003060285
 0.000000002000155
 0.000000001284872
 0.000000000811819
 0.000000000504786
 0.000000000309005
 0.000000000186252
 0.000000000110529
 0.000000000064560
 0.000000000037097
 0.000000000020956
 0.000000000011629
 0.000000000006333
 0.000000000003383
 0.000000003376716
 0.000000005377295
 0.000000008340707
 0.000000012601225
 0.000000018543643
 0.000000026579789
 0.000000037109442
 0.000000050465719
 0.000000066848406
 0.000000086252634
 0.000000108404056
 0.000000132714047
 0.000000158268420
 0.000000183860011
 0.000000208069199
 0.000000229387847
 0.000000246372967
 0.000000257808814
 0.000000262852135
 0.000000261136332
 0.000000252816485
 0.000000238547447
 0.000000219399137
 0.000000196724187
 0.000000172000633
 0.000000146674946
 0.000000122028121
 0.000000099080902
 0.000000078545371
 0.000000060821354
 0.000000046029135
 0.000000034065973
 0.000000024673083
 0.000000017501483
 0.000000012168414
 0.000000008299937
 0.000000005558689
 0.000000003658345
 0.000000002367731
 0.000000001507915
 0.000000000945369
 0.000000000583573
 0.000000000354689
 0.000000000212201
 0.000000000124908
 0.000000000072294
 0.000000000041111
 0.000000000022950
 0.000000000012566
 0.000000000006743
 0.000000005717684
 0.000000009105281
 0.000000014123331
 0.000000021337962
 0.000000031400927
 0.000000045009883
 0.000000062842256
 0.000000085462846
 0.000000113210995
 0.000000146079887
 0.000000183606831
 0.000000224797396
 0.000000268106238
 0.000000311492117
 0.000000352553979
 0.000000388740446
 0.000000417609562
 0.000000437102779
 0.000000445790445
 0.000000443047853
 0.000000429131385
 0.000000405141616
 0.000000372880429
 0.000000334627761
 0.000000292876335
 0.000000250067026
 0.000000208363166
 0.000000169490809
 0.000000134657076
 0.000000104543880
 0.000000079362660
 0.000000058949099
 0.000000042875393
 0.000000030560614
 0.000000021365338
 0.000000014663127
 0.000000009887256
 0.000000006555234
 0.000000004276030
 0.000000002745595
 0.000000001735753
 0.000000001080458
 0.000000000662077
 0.000000000399215
 0.000000000236725
 0.000000000137943
 0.000000000078924
 0.000000000044300
 0.000000000024373
 0.000000000013133
 0.000000009430033
 0.000000015017270
 0.000000023293803
 0.000000035193554
 0.000000051791823
 0.000000074239851
 0.000000103655867
 0.000000140972810
 0.000000186752383
 0.000000240986110
 0.000000302914460
 0.000000370901724
 0.000000442404262
 0.000000514060939
 0.000000581917050
 0.000000641769120
 0.000000689592436
 0.000000721991970
 0.000000736606398
 0.000000732397808
 0.000000709777099
 0.000000670543486
 0.000000617649881
 0.000000554836348
 0.000000486194687
 0.000000415734250
 0.000000347011751
 0.000000282869296
 0.000000225300328
 0.000000175438929
 0.000000133648847
 0.000000099677790
 0.000000072840344
 0.000000052197822
 0.000000036712509
 0.000000025364348
 0.000000017227439
 0.000000011510550
 0.000000007569574
 0.000000004900968
 0.000000003124383
 0.000000001960894
 0.000000001211131
 0.000000000735752
 0.000000000439306
 0.000000000257601
 0.000000000148217
 0.000000000083607
 0.000000000046197
 0.000000000024985
 0.000000015148663
 0.000000024124450
 0.000000037420833
 0.000000056538505
 0.000000083205570
 0.000000119272580
 0.000000166537697
 0.000000226502317
 0.000000300072609
 0.000000387240158
 0.000000486791552
 0.000000596107381
 0.000000711110973
 0.000000826413106
 0.000000935670776
 0.000001032139774
 0.000001109359850
 0.000001161877345
 0.000001185892569
 0.000001179724017
 0.000001144009401
 0.000001081609160
 0.000000997231460
 0.000000896846445
 0.000000786990722
 0.000000674074118
 0.000000563788893
 0.000000460691708
 0.000000367989510
 0.000000287521721
 0.000000219900921
 0.000000164757094
 0.000000121027241
 0.000000087240140
 0.000000061760708
 0.000000042975117
 0.000000029412628
 0.000000019810776
 0.000000013136402
 0.000000008576684
 0.000000005513028
 0.000000003487792
 0.000000002170579
 0.000000001327919
 0.000000000797986
 0.000000000470627
 0.000000000272170
 0.000000000154210
 0.000000000085536
 0.000000000046412
 0.000000023703038
 0.000000037747956
 0.000000058554089
 0.000000088470330
 0.000000130201946
 0.000000186646623
 0.000000260621263
 0.000000354480040
 0.000000469647854
 0.000000606121069
 0.000000762013372
 0.000000933241255
 0.000001113443341
 0.000001294205771
 0.000001465621840
 0.000001617154200
 0.000001738703978
 0.000001821738282
 0.000001860300173
 0.000001851732842
 0.000001796993403
 0.000001700503106
 0.000001569564005
 0.000001413448014
 0.000001242315803
 0.000001066139890
 0.000000893787384
 0.000000732371144
 0.000000586917082
 0.000000460335259
 0.000000353635774
 0.000000266304326
 0.000000196747578
 0.000000142731076
 0.000000101755234
 0.000000071340680
 0.000000049216908
 0.000000033424452
 0.000000022349662
 0.000000014713572
 0.000000009534342
 0.000000006078325
 0.000000003809948
 0.000000002346194
 0.000000001418253
 0.000000000840837
 0.000000000488501
 0.000000000277883
 0.000000000154658
 0.000000000084159
 0.000000036124601
 0.000000057530730
 0.000000089242718
 0.000000134841763
 0.000000198453169
 0.000000284496978
 0.000000397272229
 0.000000540375634
 0.000000715991359
 0.000000924130861
 0.000001161941246
 0.000001423225884
 0.000001698320641
 0.000001974435506
 0.000002236504439
 0.000002468495134
 0.000002655033200
 0.000002783114878
 0.000002843641028
 0.000002832516937
 0.000002751129173
 0.000002606119344
 0.000002408501049
 0.000002172281361
 0.000001912825865
 0.000001645231247
 0.000001382940173
 0.000001136761907
 0.000000914369596
 0.000000720254538
 0.000000556047790
 0.000000421080788
 0.000000313050192
 0.000000228671546
 0.000000164240856
 0.000000116061663
 0.000000080728939
 0.000000055285092
 0.000000037276280
 0.000000024740643
 0.000000016156950
 0.000000010375670
 0.000000006547280
 0.000000004056355
 0.000000002465282
 0.000000001468516
 0.000000000856670
 0.000000000489032
 0.000000000272989
 0.000000000148926
 0.000000053625611
 0.000000085403917
 0.000000132483379
 0.000000200182539
 0.000000294629344
 0.000000422391834
 0.000000589862123
 0.000000802394766
 0.000001063253889
 0.000001372486045
 0.000001725894309
 0.000002114326568
 0.000002523490345
 0.000002934456685
 0.000003324916392
 0.000003671116972
 0.000003950264672
 0.000004143057243
 0.000004235952035
 0.000004222791961
 0.000004105510936
 0.000003893801440
 0.000003603813856
 0.000003256126874
 0.000002873342264
 0.000002477692995
 0.000002089009372
 0.000001723281835
 0.000001391922536
 0.000001101694837
 0.000000855178113
 0.000000651579702
 0.000000487697651
 0.000000358867075
 0.000000259773704
 0.000000185074103
 0.000000129810659
 0.000000089643542
 0.000000060940026
 0.000000040766052
 0.000000026820290
 0.000000017341646
 0.000000011011080
 0.000000006859796
 0.000000004189475
 0.000000002506181
 0.000000001467336
 0.000000000840234
 0.000000000470270
 0.000000000257114
 0.000000077537644
 0.000000123489022
 0.000000191568691
 0.000000289470817
 0.000000426062779
 0.000000610852642
 0.000000853100363
 0.000001160574190
 0.000001538030700
 0.000001985587213
 0.000002497239784
 0.000003059833960
 0.000003652794545
 0.000004248848652
 0.000004815833123
 0.000005319482776
 0.000005726888462
 0.000006010142974
 0.000006149605377
 0.000006136240869
 0.000005972636680
 0.000005672527010
 0.000005258929280
 0.000004761237443
 0.000004211780704
 0.000003642405306
 0.000003081571419
 0.000002552303502
 0.000002071136317
 0.000001648009134
 0.000001286916951
 0.000000987050542
 0.000000744147638
 0.000000551820590
 0.000000402698387
 0.000000289299838
 0.000000204622371
 0.000000142477876
 0.000000097631423
 0.000000065804345
 0.000000043596354
 0.000000028368550
 0.000000018115469
 0.000000011342635
 0.000000006957686
 0.000000004177888
 0.000000002453987
 0.000000001409048
 0.000000000790435
 0.000000000432987
 0.000000109200654
 0.000000173921390
 0.000000269813665
 0.000000407720311
 0.000000600141226
 0.000000860485825
 0.000001201824432
 0.000001635140544
 0.000002167194118
 0.000002798232868
 0.000003519907252
 0.000004313820591
 0.000005151144300
 0.000005993627064
 0.000006796125532
 0.000007510510821
 0.000008090514063
 0.000008496834685
 0.000008701713178
 0.000008692208384
 0.000008471621604
 0.000008058836620
 0.000007485722223
 0.000006793083870
 0.000006025876428
 0.000005228455803
 0.000004440552145
 0.000003694430284
 0.000003013428555
 0.000002411804339
 0.000001895617722
 0.000001464281766
 0.000001112398423
 0.000000831561175
 0.000000611906514
 0.000000443304246
 0.000000316167732
 0.000000221927193
 0.000000153240649
 0.000000104023365
 0.000000069367014
 0.000000045402625
 0.000000029143625
 0.000000018330489
 0.000000011288150
 0.000000006800896
 0.000000004006006
 0.000000002305685
 0.000000001296001
 0.000000000711105
 0.000000149799902
 0.000000238590631
 0.000000370153338
 0.000000559372860
 0.000000823414844
 0.000001180704201
 0.000001649217301
 0.000002244090405
 0.000002974694842
 0.000003841503013
 0.000004833231648
 0.000005924852209
 0.000007077056275
 0.000008237625113
 0.000009344877452
 0.000010332995802
 0.000011138634205
 0.000011707883641
 0.000012002505978
 0.000012004401226
 0.000011717550748
 0.000011167126418
 0.000010395970806
 0.000009459115458
 0.000008417307810
 0.000007330601803
 0.000006252932621
 0.000005228297009
 0.000004288786903
 0.000003454369988
 0.000002734049516
 0.000002127903264
 0.000001629495006
 0.000001228239539
 0.000000911439169
 0.000000665852493
 0.000000478774540
 0.000000338685938
 0.000000235566830
 0.000000160977451
 0.000000107993595
 0.000000071063280
 0.000000045828952
 0.000000028942059
 0.000000017884833
 0.000000010807053
 0.000000006381609
 0.000000003680616
 0.000000002072415
 0.000000001138747
 0.000000200158049
 0.000000318809664
 0.000000494629630
 0.000000747523550
 0.000001100456620
 0.000001578094807
 0.000002204530829
 0.000003000097906
 0.000003977471533
 0.000005137490681
 0.000006465345990
 0.000007927920178
 0.000009473062842
 0.000011031397142
 0.000012520889216
 0.000013853914129
 0.000014946023703
 0.000015725188222
 0.000016140065960
 0.000016165928485
 0.000015807241607
 0.000015096497969
 0.000014089581312
 0.000012858553001
 0.000011483148205
 0.000010042373383
 0.000008607410219
 0.000007236629762
 0.000005973025204
 0.000004843908406
 0.000003862379638
 0.000003029916627
 0.000002339430501
 0.000001778257587
 0.000001330736464
 0.000000980202944
 0.000000710383211
 0.000000506260013
 0.000000354529858
 0.000000243773202
 0.000000164440737
 0.000000108731944
 0.000000070416519
 0.000000044630177
 0.000000027663973
 0.000000016759435
 0.000000009917972
 0.000000005730557
 0.000000003231492
 0.000000001777832
 0.000000260502379
 0.000000414944078
 0.000000643816559
 0.000000973052541
 0.000001432585146
 0.000002054588835
 0.000002870531832
 0.000003907043490
 0.000005180855795
 0.000006693378032
 0.000008425743758
 0.000010335347432
 0.000012354883801
 0.000014394663383
 0.000016348502206
 0.000018102840221
 0.000019548059239
 0.000020590411927
 0.000021162693846
 0.000021231889806
 0.000020802510581
 0.000019915109278
 0.000018640350617
 0.000017069790788
 0.000015305029292
 0.000013447016823
 0.000011587050802
 0.000009800464789
 0.000008143379195
 0.000006652292251
 0.000005345873417
 0.000004228129290
 0.000003292129579
 0.000002523645352
 0.000001904283321
 0.000001413927067
 0.000001032472361
 0.000000740951272
 0.000000522183716
 0.000000361093656
 0.000000244801701
 0.000000162574012
 0.000000105680182
 0.000000067194240
 0.000000041762617
 0.000000025357936
 0.000000015034740
 0.000000008700602
 0.000000004912665
 0.000000002705624
 0.000000330239966
 0.000000526054045
 0.000000816264740
 0.000001233785644
 0.000001816629101
 0.000002605690220
 0.000003641028175
 0.000004956648391
 0.000006574112178
 0.000008495678797
 0.000010698038250
 0.000013127917675
 0.000015700838277
 0.000018303996868
 0.000020803646614
 0.000023056540341
 0.000024924139570
 0.000026287590291
 0.000027061118374
 0.000027201627630
 0.000026712898715
 0.000025643763369
 0.000024080739424
 0.000022136591589
 0.000019936902950
 0.000017606879046
 0.000015260272298
 0.000012991644296
 0.000010872382136
 0.000008950159989
 0.000007251037831
 0.000005783175694
 0.000004541186920
 0.000003510372789
 0.000002670370040
 0.000001998014313
 0.000001469422869
 0.000001061413118
 0.000000752411069
 0.000000522991983
 0.000000356161444
 0.000000237449620
 0.000000154865541
 0.000000098744451
 0.000000061516663
 0.000000037426075
 0.000000022226280
 0.000000012879761
 0.000000007280480
 0.000000004013363
 0.000000407783311
 0.000000649616477
 0.000001008070049
 0.000001523842014
 0.000002243966129
 0.000003219095939
 0.000004498938962
 0.000006125844405
 0.000008126944715
 0.000010505716061
 0.000013234256596
 0.000016247856574
 0.000019443426359
 0.000022682975943
 0.000025802603606
 0.000028626456882
 0.000030984076102
 0.000032728673965
 0.000033753483742
 0.000034003475293
 0.000033480498265
 0.000032241111003
 0.000030387711282
 0.000028054772892
 0.000025392731277
 0.000022552204190
 0.000019670801562
 0.000016863945436
 0.000014220143664
 0.000011800295586
 0.000009640032600
 0.000007753875292
 0.000006140077273
 0.000004785310932
 0.000003668701546
 0.000002765028237
 0.000002047124878
 0.000001487620394
 0.000001060178133
 0.000000740364530
 0.000000506232491
 0.000000338667889
 0.000000221528008
 0.000000141597687
 0.000000088395534
 0.000000053871017
 0.000000032037816
 0.000000018587083
 0.000000010516727
 0.000000005801911
 0.000000490471944
 0.000000781399800
 0.000001212678698
 0.000001833338323
 0.000002700085145
 0.000003874064477
 0.000005415405732
 0.000007375553444
 0.000009787861296
 0.000012657482063
 0.000015952104350
 0.000019595415102
 0.000023465156173
 0.000027397197411
 0.000031196169769
 0.000034652016094
 0.000037560564436
 0.000039745212699
 0.000041076320240
 0.000041485110411
 0.000040969802581
 0.000039593124663
 0.000037471969068
 0.000034761353002
 0.000031635696165
 0.000028270564700
 0.000024827485129
 0.000021443422878
 0.000018225362527
 0.000015249427365
 0.000012563340761
 0.000010190824303
 0.000008136679267
 0.000006391661469
 0.000004936674205
 0.000003746147448
 0.000002790684164
 0.000002039135921
 0.000001460257490
 0.000001024033609
 0.000000702712941
 0.000000471549011
 0.000000309241721
 0.000000198088965
 0.000000123883184
 0.000000075610405
 0.000000045021601
 0.000000026146076
 0.000000014805890
 0.000000008173698
 0.000000574628750
 0.000000915553079
 0.000001421024359
 0.000002148593910
 0.000003164884565
 0.000004541836850
 0.000006350369266
 0.000008651453624
 0.000011485158818
 0.000014858862624
 0.000018736432813
 0.000023030559120
 0.000027600403525
 0.000032256216937
 0.000036771549235
 0.000040902304842
 0.000044410447270
 0.000047088986411
 0.000048784322586
 0.000049412276465
 0.000048965205003
 0.000047509266876
 0.000045172759264
 0.000042128042252
 0.000038570514956
 0.000034698218445
 0.000030694968476
 0.000026718731528
 0.000022895627163
 0.000019318825492
 0.000016050941261
 0.000013128361368
 0.000010566180709
 0.000008362874576
 0.000006504311185
 0.000004967067369
 0.000003721198308
 0.000002732644354
 0.000001965392996
 0.000001383418867
 0.000000952350317
 0.000000640782211
 0.000000421170893
 0.000000270292801
 0.000000169301745
 0.000000103463669
 0.000000061671679
 0.000000035846569
 0.000000020313448
 0.000000011220688
 0.000000655772438
 0.000001044943609
 0.000001622050374
 0.000002452917047
 0.000003613824488
 0.000005187279566
 0.000007254848768
 0.000009887054359
 0.000013130956958
 0.000016996779293
 0.000021445605689
 0.000026380619939
 0.000031644325995
 0.000037023606979
 0.000042263324439
 0.000047087610651
 0.000051226379784
 0.000054443277428
 0.000056560674114
 0.000057477614345
 0.000057177853373
 0.000055726990462
 0.000053259785509
 0.000049960505652
 0.000046040162066
 0.000041714560799
 0.000037186282545
 0.000032632342210
 0.000028197797333
 0.000023994379259
 0.000020102560868
 0.000016575389201
 0.000013442761314
 0.000010715374355
 0.000008388108895
 0.000006442958351
 0.000004851750812
 0.000003578863119
 0.000002583986210
 0.000001824853422
 0.000001259750072
 0.000000849605776
 0.000000559520821
 0.000000359665547
 0.000000225584729
 0.000000138012034
 0.000000082339758
 0.000000047895498
 0.000000027157824
 0.000000015008817
 0.000000728981468
 0.000001161735577
 0.000001803605631
 0.000002727955330
 0.000004019908282
 0.000005771715032
 0.000008074876505
 0.000011009018670
 0.000014628201913
 0.000018946152654
 0.000023922651099
 0.000029453777180
 0.000035368693372
 0.000041434993171
 0.000047373377004
 0.000052880721719
 0.000057658836394
 0.000061444783597
 0.000064037996480
 0.000065319781660
 0.000065262151926
 0.000063924988070
 0.000061442780500
 0.000058004076818
 0.000053827798293
 0.000049140578124
 0.000044158323843
 0.000039073685747
 0.000034049517125
 0.000029217184596
 0.000024677983901
 0.000020505952117
 0.000016750854863
 0.000013440784829
 0.000010584375300
 0.000008172952658
 0.000006182996423
 0.000004579116882
 0.000003317518027
 0.000002349699745
 0.000001626038049
 0.000001098884143
 0.000000724918671
 0.000000466641271
 0.000000293020425
 0.000000179439956
 0.000000107139846
 0.000000062361060
 0.000000035378562
 0.000000019560331
 0.000000789374465
 0.000001258154232
 0.000001953628194
 0.000002955480809
 0.000004356303869
 0.000006256668800
 0.000008756712325
 0.000011944225596
 0.000015879974311
 0.000020581837025
 0.000026010145136
 0.000032057104784
 0.000038543151288
 0.000045222388844
 0.000051797915718
 0.000057946033262
 0.000063346462746
 0.000067714213880
 0.000070828090801
 0.000072551236150
 0.000072840575436
 0.000071744207587
 0.000069388146782
 0.000065955745143
 0.000061664132356
 0.000056741895797
 0.000051411134421
 0.000045875373505
 0.000040313168954
 0.000034876031509
 0.000029688813676
 0.000024850903073
 0.000020437214650
 0.000016498737824
 0.000013062982310
 0.000010134920834
 0.000007698945081
 0.000005722045873
 0.000004158058912
 0.000002952523129
 0.000002047559736
 0.000001386208087
 0.000000915808500
 0.000000590236268
 0.000000371000426
 0.000000227379549
 0.000000135854584
 0.000000079117839
 0.000000044905017
 0.000000024836402
 0.000000832644546
 0.000001327336058
 0.000002061462636
 0.000003119377648
 0.000004599264040
 0.000006608047158
 0.000009252661852
 0.000012627658281
 0.000016799898298
 0.000021791987485
 0.000027566912828
 0.000034016867048
 0.000040959203579
 0.000048141736862
 0.000055258200184
 0.000061972815454
 0.000067951010633
 0.000072891823937
 0.000076556896708
 0.000078791427060
 0.000079533991462
 0.000078814389877
 0.000076741056433
 0.000073481471038
 0.000069239922412
 0.000064236729294
 0.000058691805392
 0.000052813724147
 0.000046793783027
 0.000040803468406
 0.000034993412204
 0.000029492340447
 0.000024405342347
 0.000019811652734
 0.000015762725049
 0.000012281525965
 0.000009363737041
 0.000006981063752
 0.000005086331568
 0.000003619661963
 0.000002514857232
 0.000001705184295
 0.000001127972122
 0.000000727735048
 0.000000457819552
 0.000000280786610
 0.000000167860522
 0.000000097802967
 0.000000055531335
 0.000000030723221
 0.000000855567096
 0.000001364137007
 0.000002119112931
 0.000003207533614
 0.000004730907358
 0.000006800118571
 0.000009526627172
 0.000013009938768
 0.000017322099611
 0.000022490871610
 0.000028484071892
 0.000035198070591
 0.000042453394891
 0.000049999645856
 0.000057530522477
 0.000064707890787
 0.000071191936190
 0.000076672979681
 0.000080899954814
 0.000083701066257
 0.000084993719346
 0.000084783050991
 0.000083150715837
 0.000080237356925
 0.000076222949936
 0.000071308809180
 0.000065703707289
 0.000059614799178
 0.000053242458171
 0.000046777207396
 0.000040396857786
 0.000034262618245
 0.000028513962612
 0.000023262991431
 0.000018589580633
 0.000014538628613
 0.000011120270308
 0.000008313234549
 0.000006070830918
 0.000004328564312
 0.000003012186619
 0.000002045095808
 0.000001354297713
 0.000000874537414
 0.000000550577766
 0.000000337879510
 0.000000202091111
 0.000000117794342
 0.000000066903983
 0.000000037025050
 0.000000856397915
 0.000001365766629
 0.000002122226246
 0.000003213326730
 0.000004741406449
 0.000006818651248
 0.000009558488817
 0.000013063289283
 0.000017409105083
 0.000022629065852
 0.000028697852261
 0.000035520163216
 0.000042926035782
 0.000050675143659
 0.000058470820486
 0.000065982757871
 0.000072875512415
 0.000078838593664
 0.000083613406557
 0.000087012895913
 0.000088931300045
 0.000089343579013
 0.000088296252525
 0.000085892953661
 0.000082278549078
 0.000077625097852
 0.000072121492345
 0.000065966887058
 0.000059366585322
 0.000052528373072
 0.000045657507737
 0.000038949496629
 0.000032581010341
 0.000026700301721
 0.000021418997039
 0.000016806981363
 0.000012891434431
 0.000009660155305
 0.000007068443933
 0.000005048214852
 0.000003517806167
 0.000002391092584
 0.000001584903139
 0.000001024236551
 0.000000645228515
 0.000000396168439
 0.000000237053992
 0.000000138220607
 0.000000078527364
 0.000000043467314
 0.000000835093361
 0.000001332139328
 0.000002070639071
 0.000003136452793
 0.000004630210100
 0.000006662672449
 0.000009346574982
 0.000012784911622
 0.000017056353596
 0.000022199329930
 0.000028197061370
 0.000034966295109
 0.000042352422787
 0.000050132958357
 0.000058030045758
 0.000065730986038
 0.000072914102721
 0.000079276048505
 0.000084556271274
 0.000088554975591
 0.000091142424375
 0.000092259430559
 0.000091910820202
 0.000090154939110
 0.000087092554268
 0.000082857733834
 0.000077611795160
 0.000071539752637
 0.000064847473930
 0.000057757375517
 0.000050501036000
 0.000043308316564
 0.000036393972091
 0.000029943810687
 0.000024102871883
 0.000018967763445
 0.000014584394223
 0.000010951190313
 0.000008026830832
 0.000005740844001
 0.000004005172087
 0.000002725006820
 0.000001807677713
 0.000001168969799
 0.000000736800027
 0.000000452591437
 0.000000270912463
 0.000000158008679
 0.000000089790837
 0.000000049711563
 0.000000793313797
 0.000001265881122
 0.000001968390130
 0.000002982949370
 0.000004406086719
 0.000006344545132
 0.000008907793131
 0.000012197207164
 0.000016292554200
 0.000021237174327
 0.000027023959670
 0.000033584633833
 0.000040784761348
 0.000048426256127
 0.000056257959309
 0.000063993340535
 0.000071332901553
 0.000077987833701
 0.000083701229694
 0.000088263804352
 0.000091522498488
 0.000093382131863
 0.000093801896789
 0.000092789435610
 0.000090395225817
 0.000086709039400
 0.000081858713720
 0.000076009943115
 0.000069364842936
 0.000062157003275
 0.000054641644050
 0.000047080974251
 0.000039726415005
 0.000032800444377
 0.000026481129947
 0.000020891888785
 0.000016097875284
 0.000012109022846
 0.000008888543890
 0.000006364903103
 0.000004445031068
 0.000003026786042
 0.000002009237927
 0.000001300039353
 0.000000819787894
 0.000000503756215
 0.000000301630550
 0.000000175968516
 0.000000100016959
 0.000000055382204
 0.000000734210030
 0.000001171991294
 0.000001823198896
 0.000002764414134
 0.000004085985282
 0.000005888355094
 0.000008275412278
 0.000011344818044
 0.000015175859862
 0.000019816071250
 0.000025268470360
 0.000031481619960
 0.000038344627756
 0.000045688605135
 0.000053295039235
 0.000060910216647
 0.000068263594317
 0.000075087202377
 0.000081133057574
 0.000086186245732
 0.000090072631276
 0.000092661685754
 0.000093866201344
 0.000093641233811
 0.000091984288638
 0.000088937629220
 0.000084592053386
 0.000079090125511
 0.000072626193291
 0.000065440843195
 0.000057808684633
 0.000050020101523
 0.000042359299198
 0.000035082070680
 0.000028396896826
 0.000022452275000
 0.000017331811133
 0.000013057033775
 0.000009596518271
 0.000006879040604
 0.000004808222644
 0.000003276415641
 0.000002176211444
 0.000001408747157
 0.000000888683648
 0.000000546266018
 0.000000327168630
 0.000000190907483
 0.000000108526595
 0.000000060102614
 0.000000662030832
 0.000001057219377
 0.000001645503038
 0.000002496557720
 0.000003692918612
 0.000005326899697
 0.000007494898000
 0.000010289028925
 0.000013786559479
 0.000018038196719
 0.000023056809698
 0.000028808449289
 0.000035207439160
 0.000042116780117
 0.000049354199794
 0.000056703084302
 0.000063926537810
 0.000070782233877
 0.000077035761737
 0.000082470863426
 0.000086896115069
 0.000090148856504
 0.000092098076319
 0.000092648158285
 0.000091744763387
 0.000089382833760
 0.000085615199847
 0.000080559108341
 0.000074397640295
 0.000067373662881
 0.000059775506312
 0.000051915523104
 0.000044104469901
 0.000036625720945
 0.000029713390824
 0.000023537547441
 0.000018198147161
 0.000013727582456
 0.000010100244827
 0.000007246578356
 0.000005068837734
 0.000003456087872
 0.000002296686873
 0.000001487338232
 0.000000938572346
 0.000000577088197
 0.000000345704792
 0.000000201759806
 0.000000114712644
 0.000000063536022
 0.000000581619380
 0.000000929265187
 0.000001447221308
 0.000002197341602
 0.000003253235723
 0.000004697800407
 0.000006618523373
 0.000009100502917
 0.000012217561480
 0.000016022320699
 0.000020536529622
 0.000025743158722
 0.000031581676066
 0.000037947466194
 0.000044695602252
 0.000051648313897
 0.000058604757181
 0.000065351335017
 0.000071670991313
 0.000077350593477
 0.000082186520551
 0.000085989536929
 0.000088590570406
 0.000089848854012
 0.000089662990494
 0.000087984093226
 0.000084828708615
 0.000080288267885
 0.000074531765615
 0.000067799349637
 0.000060386314813
 0.000052619120418
 0.000044826883149
 0.000037312817263
 0.000030330045030
 0.000024065156667
 0.000018631205521
 0.000014069965280
 0.000010361711140
 0.000007439824900
 0.000005207265069
 0.000003552295524
 0.000002361614134
 0.000001529912370
 0.000000965710368
 0.000000593910736
 0.000000355849022
 0.000000207711866
 0.000000118111415
 0.000000065425107
 0.000000497881240
 0.000000795933194
 0.000001240444909
 0.000001885006622
 0.000002793730871
 0.000004039377153
 0.000005699640255