ANIMSTEPS      1049
ATOMS         1
   1    0.24285247822417163621E+00    0.94516401434455754593E+00    0.65348820615518457555E-02    0.52460350867215296096E-04    0.83028043437236910031E-03    0.32646592251164813876E-03
   8   -0.11090673775003952184E+00   -0.23608365000891530852E-02   -0.80287107930608083133E-03    0.60976222458638587294E-04   -0.11718228279628717825E-03   -0.40531710245452947500E-04
   1   -0.96362604493107928416E+00    0.19017093505524145652E-01    0.62095711558486773804E-02   -0.10203724285691290457E-02    0.10298240824029047426E-02    0.31691817533238567182E-03
ATOMS         2
   1    0.24210606464835088270E+00    0.95991735433011948775E+00    0.13058636900465925984E-01   -0.12968001941456844175E-03    0.61212466009682347037E-03    0.32497811335806085775E-03
   8   -0.10868816076504556056E+00   -0.46872913118514870218E-02   -0.16212684098181179542E-02    0.14533079999344764564E-03   -0.11307933857578031964E-03   -0.41369146654493307836E-04
   1   -0.99809643181454854588E+00    0.41192963296116193173E-01    0.12676727013295427740E-01   -0.21772427597253943797E-02    0.11828513671617432376E-02    0.33169911387205959193E-03
ATOMS         3
   1    0.23766527744758886298E+00    0.96964900074843052291E+00    0.19534006595874276596E-01   -0.30806952833593208643E-03    0.34950304591251980281E-03    0.32147342836178703076E-03
   8   -0.10509350575030161623E+00   -0.68840100431203660875E-02   -0.24576369454858133616E-02    0.19505009145615490279E-03   -0.10443328579203070095E-03   -0.41977071075761305781E-04
   1   -0.10507157553200949796E+01    0.66331148191993871688E-01    0.19477535710731064961E-01   -0.27880773247318546039E-02    0.13082290102306480886E-02    0.34485374709322360242E-03
ATOMS         4
   1    0.22978328351491361659E+00    0.97389747616662036833E+00    0.25917574034937398975E-01   -0.46679019113745045264E-03    0.79810901605623611873E-04    0.31595496188686016505E-03
   8   -0.10088615710679936510E+00   -0.88646227435327136501E-02   -0.33003512528485706191E-02    0.20981782729201280883E-03   -0.91878578772846004994E-04   -0.41847352190789540349E-04
   1   -0.11096195248038225323E+01    0.93522123705342130595E-01    0.26470876897024375740E-01   -0.28637737723955511773E-02    0.13786327751348892955E-02    0.34831310806099363567E-03
ATOMS         5
   1    0.21899366980209086786E+00    0.97284143681265555781E+00    0.32172205071348679295E-01   -0.59367176370265400173E-03   -0.16795315235870343553E-03    0.30898702292474357995E-03
   8   -0.96700792658621109732E-01   -0.10559153194034205311E-01   -0.41315310331173941624E-02    0.19757630964301961941E-03   -0.76604379965098583303E-04   -0.40838676372898875865E-04
   1   -0.11652667062159169920E+01    0.12147645919738944698E+00    0.33410060033170811689E-01   -0.25425752627669076684E-02    0.13839403287270060725E-02    0.33926973200134946185E-03
ATOMS         6
   1    0.20603641296680746953E+00    0.96717935007227218147E+00    0.38277054951927146076E-01   -0.67989560901506236081E-03   -0.36930612054553803346E-03    0.30162329341300325334E-03
   8   -0.92983104721078582711E-01   -0.11928797942136660018E-01   -0.49338983077645255995E-02    0.16689284756141539333E-03   -0.60345470188867853878E-04   -0.39062444735030926789E-04
   1   -0.12113225353144989604E+01    0.14887973685442237870E+00    0.40041666177078355515E-01   -0.19692944575938125737E-02    0.13272058899191829708E-02    0.31843827352395466870E-03
ATOMS         7
   1    0.19179784544148839598E+00    0.95806919199083395711E+00    0.44237136807868809862E-01   -0.71937660549957255143E-03   -0.50294962444304960793E-03    0.29534390789100379866E-03
   8   -0.90025078756164486626E-01   -0.12972972001588920984E-01   -0.56940288225186316134E-02    0.12421041623072675664E-03   -0.44958695453581406663E-04   -0.36732975662797738689E-04
   1   -0.12440384845196694741E+01    0.17456469479415678836E+00    0.46147590974129001906E-01   -0.12522896801194346918E-02    0.12166059083619392128E-02    0.28774060210909661005E-03
ATOMS         8
   1    0.17726134874682458742E+00    0.94706136509455018935E+00    0.50090811267567300624E-01   -0.70849053329430193571E-03   -0.55253657330588232428E-03    0.29185794362102942612E-03
   8   -0.88014688071849520035E-01   -0.13727145760279915038E-01   -0.64032173342764347676E-02    0.73847979253454488309E-04   -0.32002989008484310554E-04   -0.34079767417131378280E-04
   1   -0.12614141225192763152E+01    0.19754397318889996282E+00    0.51551290261442221652E-01   -0.46374264467575354197E-03    0.10605391739078669396E-02    0.24911060376133479675E-03
ATOMS         9
   1    0.16345822410971633243E+00    0.93596772905859870750E+00    0.55911454552709981269E-01   -0.64626980910626938542E-03   -0.51072249808723727427E-03    0.29269552475807584851E-03
   8   -0.87071159586026319888E-01   -0.14253091561928292810E-01   -0.70572195192038864736E-02    0.18826204337852233957E-04   -0.22388979905136332192E-04   -0.31304237267075829608E-04
   1   -0.12625881903066995537E+01    0.21698626175047147635E+00    0.56112015124582401149E-01    0.34743019882618389601E-03    0.86611617752197888730E-03    0.20421537119980309564E-03
ATOMS        10
   1    0.15141055638257380767E+00    0.92663246517106079292E+00    0.61798632257890333264E-01   -0.53479751179980375940E-03   -0.38389215851512050728E-03    0.29860141604981353409E-03
   8   -0.87261639898335449650E-01   -0.14622704956485368596E-01   -0.76553868249594680603E-02   -0.38263672064890497148E-04   -0.16113358907552166247E-04   -0.28554093668757203649E-04
   1   -0.12475169145662290404E+01    0.23218862028977910184E+00    0.59719905109434354151E-01    0.11421796820212373400E-02    0.63966914944867244927E-03    0.15465480441496123713E-03
ATOMS        11
   1    0.14206632363772417338E+00    0.92061204271799390586E+00    0.67855511194702525235E-01   -0.37937346475655232261E-03   -0.19497312734491191000E-03    0.30889975433662664878E-03
   8   -0.88601706468621949098E-01   -0.14897625918230380029E-01   -0.81993832659541746738E-02   -0.94497344727566845468E-04   -0.12193321732260175761E-04   -0.25914201071877768565E-04
   1   -0.12169010030258502475E+01    0.24257302772841835004E+00    0.62298207301180852369E-01    0.18793863810144567812E-02    0.38852502177335750165E-03    0.10245187077397201062E-03
ATOMS        12
   1    0.13623561779231169178E+00    0.91883354007726425472E+00    0.74154622431355399215E-01   -0.18819929617649937379E-03    0.18491072245455385969E-04    0.32116810844559618397E-03
   8   -0.91041533687438128131E-01   -0.15110437825775775017E-01   -0.86919548678345785048E-02   -0.14588649641625111523E-03   -0.89811739319600678711E-05   -0.23437624653810471014E-04
   1   -0.11723414593256507032E+01    0.24772962116071339800E+00    0.63817979940393232408E-01    0.25039429772595448755E-02    0.12407247744938428263E-03    0.50871336773486825172E-04
ATOMS        13
   1    0.13453835179066417349E+00    0.92135168560781210978E+00    0.80702235532526381268E-01    0.28223904601020386552E-04    0.21197691734068407790E-03    0.33154791010392127776E-03
   8   -0.94437166325272006717E-01   -0.15256872875508781240E-01   -0.91368882521065918068E-02   -0.18661490421867238929E-03   -0.49355805074579859842E-05   -0.21244168495737678868E-04
   1   -0.11167432839354682894E+01    0.24753592682639374845E+00    0.64333060772120323478E-01    0.29340261723853271018E-02   -0.13363149364902803559E-03    0.56734925781971841326E-05
ATOMS        14
   1    0.13736457397635251643E+00    0.92731261677089160678E+00    0.87416538835512244687E-01    0.25746097941855243659E-03    0.34480941771374782603E-03    0.33570868326805979867E-03
   8   -0.98506129856185023486E-01   -0.15307861046074091455E-01   -0.95417216076640835182E-02   -0.20847369108380843289E-03    0.37192841712925261954E-06   -0.19675722260034383818E-04
   1   -0.10549804124302375463E+01    0.24238436141475228069E+00    0.64044919643521117103E-01    0.30517667055202819804E-02   -0.35071326010451187765E-03   -0.23384166512141357249E-04
ATOMS        15
   1    0.14483679096740625925E+00    0.93514406231636193478E+00    0.94130582863248754566E-01    0.48507762003927978444E-03    0.38953542143367077396E-03    0.33008400056799808804E-03
   8   -0.10277611396862434967E+00   -0.15241995738823609433E-01   -0.99239171425079680811E-02   -0.20153211662656716260E-03    0.56437732905804771402E-05   -0.19399411584323069183E-04
   1   -0.99467261571465714898E+00    0.23350739642221327030E+00    0.63397694111634664282E-01    0.27139622985126086140E-02   -0.47912241307569600158E-03   -0.22145528559282034791E-04
ATOMS        16
   1    0.15676767877792369132E+00    0.94289403362823842603E+00    0.10061989885823215130E+00    0.69492589053356864509E-03    0.33672650886146883236E-03    0.31289329269887654382E-03
   8   -0.10656741452124771086E+00   -0.15082110114450871657E-01   -0.10317698071037006285E-01   -0.15825431380141546868E-03    0.86224710081887857507E-05   -0.21194265772302488618E-04
   1   -0.94642192048973328156E+00    0.22321946489172445061E+00    0.63159098501149826821E-01    0.18171395589245584960E-02   -0.47359615233801666918E-03    0.23535974183817782887E-04
ATOMS        17
   1    0.17263382658874898423E+00    0.94861312267082076310E+00    0.10664631457120382629E+00    0.87105274869068852802E-03    0.19536378391083117898E-03    0.28469624825745942992E-03
   8   -0.10910628652068098121E+00   -0.14897096898496057366E-01   -0.10771687773400066487E-01   -0.82223560962814518332E-04    0.87348732454044838975E-05   -0.25166443534124069881E-04
   1   -0.92198703335767484557E+00    0.21456355032869256494E+00    0.64339133078987378878E-01    0.43413105113475987298E-03   -0.33401765537945555000E-03    0.11478577387018328688E-03
ATOMS        18
   1    0.19160978872555123331E+00    0.95070858498467170072E+00    0.11200774878853053673E+00    0.10011914243384912281E-02   -0.10137790206529418457E-04    0.24839107902625568716E-03
   8   -0.10985635695976030124E+00   -0.14732715184634693345E-01   -0.11324355812401969840E-01    0.60151371998679234918E-05    0.91761300636264050143E-05   -0.29959712659849104715E-04
   1   -0.92905667844434292046E+00    0.20985875867654621429E+00    0.67750529455957164693E-01   -0.10966732976004087748E-02   -0.13552041486139299086E-03    0.22717737304728914194E-03
ATOMS        19
   1    0.21268148356228863682E+00    0.94820761106255957440E+00    0.11658195773225404901E+00    0.10798133245079847165E-02   -0.24615080933665812318E-03    0.20856602851671850901E-03
   8   -0.10886568103268626229E+00   -0.14530051695951000379E-01   -0.11970076279794029592E-01    0.78856811376901137216E-04    0.14396537630574451455E-04   -0.33379558835312118502E-04
   1   -0.96585396526169109421E+00    0.20914273373423686309E+00    0.73426228000878959734E-01   -0.23315546929165986700E-02    0.17625950172494251749E-04    0.32128768892167677449E-03
ATOMS        20
   1    0.23480232170587062024E+00    0.94086255261120532722E+00    0.12035038992919926126E+00    0.11089917591389295958E-02   -0.47763274622424995103E-03    0.17040934423197964614E-03
   8   -0.10670208450468426919E+00   -0.14156853679411714880E-01   -0.12659538165814452140E-01    0.11979232166434712994E-03    0.25505294263850293633E-04   -0.34089876036114308180E-04
   1   -0.10223188661610067562E+01    0.21056379668344596401E+00    0.80602037012824256923E-01   -0.30105269851612437293E-02    0.72771943637345548042E-04    0.37071966331022975340E-03
ATOMS        21
   1    0.25704115392784582239E+00    0.92910230121358960975E+00    0.12339833150153321772E+00    0.10971674485816759487E-02   -0.67404064708435126180E-03    0.13874627976029858876E-03
   8   -0.10407398816611238002E+00   -0.13509839925396987387E-01   -0.13333671321238601756E-01    0.12842341348177815420E-03    0.39768015542177993890E-04   -0.32255450594712050511E-04
   1   -0.10862750446681408434E+01    0.21205361147973067482E+00    0.88255014533288156375E-01   -0.31357091613458082206E-02    0.42779132391121962116E-04    0.37326379471613581546E-03
ATOMS        22
   1    0.27868901964913767033E+00    0.91390092672783129757E+00    0.12590024111961120590E+00    0.10566309626212602897E-02   -0.81216501480430708642E-03    0.11752219574439003418E-03
   8   -0.10156514796541311896E+00   -0.12566133057724594366E-01   -0.13949756189602936438E-01    0.11248401074952597346E-03    0.53356603673081007819E-04   -0.28844796758517612348E-04
   1   -0.11477472326148390191E+01    0.21227496197909084819E+00    0.95532588801469697781E-01   -0.28421569949475494581E-02   -0.34796293029429534714E-04    0.34034852887067433384E-03
ATOMS        23
   1    0.29930639243269624439E+00    0.89661570062141726645E+00    0.12809921933130882787E+00    0.10004570180763862602E-02   -0.87739830833239134799E-03    0.10956208859885961855E-03
   8   -0.99574627736131335332E-01   -0.11375575778473749622E-01   -0.14487463191579305274E-01    0.80335811368413830393E-04    0.63333384199969064909E-04   -0.24868619319900139050E-04
   1   -0.11999613244660427558E+01    0.21066175975855347402E+00    0.10186895568811514534E+00   -0.22756754386372090269E-02   -0.12793040861899779943E-03    0.28519239150738350886E-03
ATOMS        24
   1    0.31870730037219308084E+00    0.87880499439453563237E+00    0.13028272466356560777E+00    0.93951882994244145797E-03   -0.86487307724382163441E-03    0.11632859048616482156E-03
   8   -0.98351715510676576693E-01   -0.10032797689725831553E-01   -0.14944500962398941241E-01    0.38268463025849507606E-04    0.68155311278497010931E-04   -0.21061659117449611984E-04
   1   -0.12387742501603276057E+01    0.20715774563433092537E+00    0.10694028446176503944E+00   -0.15469770499549097276E-02   -0.21699697449213811436E-03    0.21799573158951378467E-03
ATOMS        25
   1    0.33688714563039390271E+00    0.86202077753166439500E+00    0.13275236295075540371E+00    0.88000559071978743178E-03   -0.78053785302112453203E-03    0.13759970086545740791E-03
   8   -0.98043889215097351775E-01   -0.86493633273338685341E-02   -0.15329929556277290675E-01   -0.94237727584681186388E-05    0.67549632988179585547E-04   -0.17843068096198312216E-04
   1   -0.12618404064642392282E+01    0.20198188077886794489E+00    0.11058878495169570388E+00   -0.73041640492483672457E-03   -0.29171790467099310579E-03    0.14563399937373000385E-03
ATOMS        26
   1    0.35390752400098463015E+00    0.84758348027369057043E+00    0.13578671269818390344E+00    0.82189196001141947602E-03   -0.64117409180664312277E-03    0.17121712650517402292E-03
   8   -0.98728666421015298660E-01   -0.73308123701986485643E-02   -0.15658223686246870721E-01   -0.59557003492129964887E-04    0.62244733851354666024E-04   -0.15374033056946071585E-04
   1   -0.12679909063573209238E+01    0.19548902944749119159E+00    0.11276564443671423243E+00    0.12349200553137933958E-03   -0.34687382652634951618E-03    0.72824102662481901733E-04
ATOMS        27
   1    0.36976282403085070083E+00    0.83637381385939868483E+00    0.13960104801096240301E+00    0.75900804803385080351E-03   -0.47223476947344034723E-03    0.21315003387230822829E-03
   8   -0.10042616935478253237E+00   -0.61595739732796814594E-02   -0.15944890878555131181E-01   -0.10919589322493870312E-03    0.53635510079926048267E-04   -0.13646907848181192454E-04
   1   -0.12569007262429841010E+01    0.18810692771781398203E+00    0.11350174905819497562E+00    0.97432372665192550944E-03   -0.37915378670151444552E-03    0.34755030490640229409E-05
ATOMS        28
   1    0.38426784592233864668E+00    0.82869408949475298343E+00    0.14431271405307621869E+00    0.68114849502592554262E-03   -0.30331973534311135405E-03    0.25801565407903404676E-03
   8   -0.10309650215001282814E+00   -0.51853919670016065252E-02   -0.16204100000174120194E-01   -0.15496602163686732626E-03    0.43361683355740592352E-04   -0.12603266587763438546E-04
   1   -0.12290179572912443007E+01    0.18032287797943064023E+00    0.11290466455867680107E+00    0.17787199246270561301E-02   -0.38498621962116481767E-03   -0.57956459577965045011E-04
ATOMS        29
   1    0.39700876383188776764E+00    0.82424102444567426407E+00    0.14992167417412372021E+00    0.57783829583206696573E-03   -0.16248693811432519734E-03    0.29995767750843531450E-03
   8   -0.10662481022025722954E+00   -0.44251066390500574943E-02   -0.16449021542065667828E-01   -0.19240848078583977498E-03    0.32828142898296275569E-04   -0.12291084461603360420E-04
   1   -0.11857519292579019599E+01    0.17270747893296739539E+00    0.11118349067507636574E+00    0.24763766898735096317E-02   -0.35861382409407062963E-03   -0.10485393675916225846E-03
ATOMS        30
   1    0.40738137775562138776E+00    0.82219461197018006704E+00    0.15631102115341363734E+00    0.44251214949359208737E-03   -0.71241252885819236892E-04    0.33360658621124362729E-03
   8   -0.11079284138144641914E+00   -0.38722662510697557735E-02   -0.16695743378638251697E-01   -0.21524537458521227117E-03    0.22741627262119549471E-04   -0.13061558090690269837E-04
   1   -0.11299628896963036517E+01    0.16597832501566783803E+00    0.10871050708831030140E+00    0.29742065209983326556E-02   -0.28975020913089941533E-03   -0.12627265636408236153E-03
ATOMS        31
   1    0.41470924981163148626E+00    0.82139137433024156376E+00    0.16326593762257346487E+00    0.27570168206186330961E-03   -0.41226723732806907770E-04    0.35493066963239439365E-03
   8   -0.11523462520366571649E+00   -0.35154415485652754612E-02   -0.16971483865693279963E-01   -0.21484848070409112968E-03    0.12728442006204384061E-04   -0.15771526828448296441E-04
   1   -0.10667836684179687889E+01    0.16111747056773143005E+00    0.10613258442051307084E+00    0.31347168542857446402E-02   -0.16081945511158639013E-03   -0.10457978390132536509E-03
ATOMS        32
   1    0.41840944503809596178E+00    0.82054554302086779582E+00    0.17050824793870941742E+00    0.86393230821178005371E-04   -0.72109133674207496426E-04    0.36208043220385639294E-03
   8   -0.11938678060961005478E+00   -0.33631285708215800587E-02   -0.17326604451776181359E-01   -0.18134953329715963505E-03    0.11636303473019348857E-05   -0.21830237521007961115E-04
   1   -0.10045742155248740257E+01    0.15954554681120439175E+00    0.10452731573225729211E+00    0.27922764618281492935E-02    0.53638132655769429685E-04   -0.15556005079532028289E-04
ATOMS        33
   1    0.41816497904447863521E+00    0.81850700898327322097E+00    0.17774915491072773577E+00   -0.10859016559563384650E-03   -0.14978118338296314690E-03    0.35642084496778669075E-03
   8   -0.12248860653555210254E+00   -0.34688963346731975339E-02   -0.17844693366533593420E-01   -0.10934784021832279601E-03   -0.14254016640961213449E-04   -0.32623909214606289318E-04
   1   -0.95509260994484268537E+00    0.16326299587396223001E+00    0.10551034421733176960E+00    0.18443338858585038229E-02    0.37604372157002378821E-03    0.16143799373097923776E-03
ATOMS        34
   1    0.41406583841427063719E+00    0.81455429568554926778E+00    0.18476508173742089980E+00   -0.28701006244365683115E-03   -0.24610762447206966990E-03    0.34338112502350752204E-03
   8   -0.12376069421834298701E+00   -0.39332892364600281765E-02   -0.18631560820360434233E-01   -0.85855073726253706301E-05   -0.34400470804023963343E-04   -0.47873910853687573366E-04
   1   -0.93080086009053375484E+00    0.17458729567400532723E+00    0.11098483548149645772E+00    0.42329296000753578602E-03    0.79216688867841868627E-03    0.41655011790550086149E-03
ATOMS        35
   1    0.40668457654673234591E+00    0.80866270400439033139E+00    0.19148439991166804619E+00   -0.42537850570415245517E-03   -0.32381463769590748637E-03    0.33192609185726291857E-03
   8   -0.12283202683045713055E+00   -0.48449151668341567181E-02   -0.19759649800681098469E-01    0.92728117438818256565E-04   -0.56558313692194246182E-04   -0.64345227257695133093E-04
   1   -0.93816089154454129773E+00    0.19494967142109895231E+00    0.12217234893355181924E+00   -0.10465504067907905467E-02    0.12215986051147145839E-02    0.68946421560961348041E-03
ATOMS        36
   1    0.39705069818610450039E+00    0.80160171017771286728E+00    0.19804212541171140050E+00   -0.50459318127496380173E-03   -0.34774564290781248901E-03    0.33188897119291571169E-03
   8   -0.12005156952079025501E+00   -0.61956217841477980238E-02   -0.21205369910668236955E-01    0.16475115212495860780E-03   -0.75980141535472551996E-04   -0.77612898637158543634E-04
   1   -0.97266287636216541834E+00    0.22345123987859391579E+00    0.13856340410588102730E+00   -0.21106004717136388725E-02    0.15538239090314611823E-02    0.90010702572731419308E-03
ATOMS        37
   1    0.38650084929573375048E+00    0.79475287828807794632E+00    0.20475995875938465818E+00   -0.51542931371478079797E-03   -0.29721105406405414796E-03    0.35032526199329529475E-03
   8   -0.11624198074545877279E+00   -0.78841208282530578222E-02   -0.22864165746167439131E-01    0.19531713613847180686E-03   -0.89818512363570542686E-04   -0.85280713540311793965E-04
   1   -0.10225849104130868561E+01    0.25710262778235742909E+00    0.15817662996264442166E+00   -0.25849564994407012684E-02    0.17229540635935367519E-02    0.10033865506185201712E-02
ATOMS        38
   1    0.37643352563751325546E+00    0.78971326801515073779E+00    0.21205513589144320274E+00   -0.46150424482016338739E-03   -0.17282077644544151305E-03    0.38883868385574234467E-03
   8   -0.11223888407525138555E+00   -0.97883622786906210322E-02   -0.24616598452280709364E-01    0.18951865624369454173E-03   -0.98032110838989475112E-04   -0.87572798076224471920E-04
   1   -0.10760611363397936113E+01    0.29236940242233533382E+00    0.17869886613062183067E+00   -0.25468388261619475006E-02    0.17289431509994576588E-02    0.10012567585706052663E-02
ATOMS        39
   1    0.36804067950292729261E+00    0.78784004723026013206E+00    0.22031350611361436020E+00   -0.35849423598301047647E-03    0.38558870297428962439E-05    0.44270337127235803807E-03
   8   -0.10866123449571099546E+00   -0.11805405261812640730E-01   -0.26367077669216414104E-01    0.15869209401521975396E-03   -0.10140852217474199243E-03   -0.85733024895451410085E-04
   1   -0.11244584634595646833E+01    0.32626035382233564697E+00    0.19822690030546863404E+00   -0.21605203608514979632E-02    0.16058622856795509801E-02    0.91818825022017813969E-03
ATOMS        40
   1    0.36209375619819283987E+00    0.78986750349634038404E+00    0.22976327074233751646E+00   -0.22982680072636832653E-03    0.19644918822914959520E-03    0.50179505107348092337E-03
   8   -0.10589120031464258065E+00   -0.13844703165680302681E-01   -0.28045919448098765442E-01    0.11335498840718262427E-03   -0.10004656003717033580E-03   -0.80753773539095452896E-04
   1   -0.11624819507738535229E+01    0.35660389384951735048E+00    0.21542639613942893284E+00   -0.15695247813021213999E-02    0.13916497442390399816E-02    0.78005793320272528903E-03
ATOMS        41
   1    0.35884760747387250968E+00    0.79569801475942625313E+00    0.24038530815655356765E+00   -0.10018799164451716024E-03    0.36394632219753436046E-03    0.55318381601539333772E-03
   8   -0.10412703495942368659E+00   -0.15807267663299453403E-01   -0.29597228610780235147E-01    0.61239657175803766695E-04   -0.93242496008131580169E-04   -0.73062068131689335954E-04
   1   -0.11872394547116496000E+01    0.38192634359189725490E+00    0.22942921763357762566E+00   -0.87190574300741716975E-03    0.11161476292203616374E-02    0.60657412429505203066E-03
ATOMS        42
   1    0.35808623653241211660E+00    0.80442535638424184086E+00    0.25189062338295320487E+00    0.10716037869791126676E-04    0.47157294390998046865E-03    0.58461783466533625338E-03
   8   -0.10344161402761044288E+00   -0.17574403006005562961E-01   -0.30968402173366337687E-01    0.74848166928919331991E-05   -0.80122130594738327769E-04   -0.62734656076006997758E-04
   1   -0.11973581804941502149E+01    0.40124979901833185414E+00    0.23968936111123101407E+00   -0.12952701343242430305E-03    0.80025359382711520363E-03    0.41120691239293947301E-03
ATOMS        43
   1    0.35927624898866411529E+00    0.81456093251582539772E+00    0.26377002154316703253E+00    0.91778118306514935723E-04    0.49822755199709566846E-03    0.58747149878419103325E-03
   8   -0.10382764229170801662E+00   -0.19012152887088986514E-01   -0.32106614853820512889E-01   -0.44623219952733120036E-04   -0.60300437758125425582E-04   -0.49827469057458810759E-04
   1   -0.11924205352489467558E+01    0.41393648734498189601E+00    0.24587749412929518766E+00    0.61655296218140792815E-03    0.45895739064825508092E-03    0.20346974285712633008E-03
ATOMS        44
   1    0.36175736126467272769E+00    0.82435445846412558346E+00    0.27538948333432089477E+00    0.14077833216108399722E-03    0.43829301567493685271E-03    0.55806620152566320178E-03
   8   -0.10522654282571977657E+00   -0.19986420516330583724E-01   -0.32961500935664689305E-01   -0.92829539049992754814E-04   -0.34236742249970981598E-04   -0.34623126057415113625E-04
   1   -0.11726960620068940244E+01    0.41960809464426207516E+00    0.24782815082551604147E+00    0.13327605062760966743E-02    0.10516728718971854418E-03   -0.84725972071943971567E-05
ATOMS        45
   1    0.36490738227510749470E+00    0.83209265314282288006E+00    0.28609266960419360570E+00    0.16239440719761116436E-03    0.29892175012138179130E-03    0.49734784321170269830E-03
   8   -0.10754082385370773711E+00   -0.20381622577087827458E-01   -0.33491539896117118735E-01   -0.13506826854931807953E-03   -0.33271399546087805439E-05   -0.17781706312764465410E-04
   1   -0.11391101149979028229E+01    0.41814317883257062780E+00    0.24553859024100740949E+00    0.19816250674730305145E-02   -0.24610806609143211394E-03   -0.21508817529036240983E-03
ATOMS        46
   1    0.36825313755257715886E+00    0.83631132846898093014E+00    0.29528339706278905474E+00    0.16552667535093203871E-03    0.95559102664416679159E-04    0.40969151402162382698E-03
   8   -0.11062927356769249043E+00   -0.20119506114514934536E-01   -0.33672769188175265265E-01   -0.16856923718409273804E-03    0.30055468519194868717E-04   -0.46945493066344406315E-06
   1   -0.10934310593079725749E+01    0.40976377200060476458E+00    0.23922462381390152686E+00    0.25102737271773937523E-02   -0.57264754481006448824E-03   -0.40223957490496085876E-03
ATOMS        47
   1    0.37152844928914480205E+00    0.83591501724939953899E+00    0.30248033016505859738E+00    0.16099162673335938741E-03   -0.15199177620669728091E-03    0.30166795036385812270E-03
   8   -0.11428359334107143774E+00   -0.19179403836320035176E-01   -0.33510318093343649526E-01   -0.18894552303358588471E-03    0.62417328035791505396E-04    0.15472074682905622128E-04
   1   -0.10386991659108069097E+01    0.39523727704016803353E+00    0.22944900724480896126E+00    0.28382537577436132981E-02   -0.83879583292578436919E-03   -0.54726545294527190536E-03
ATOMS        48
   1    0.37469280262191156927E+00    0.83023165742071314277E+00    0.30735011507734338876E+00    0.15989873096216951549E-03   -0.42190737210036474616E-03    0.18127233713389603116E-03
   8   -0.11818709448903592929E+00   -0.17622812993083276922E-01   -0.33053886200859042277E-01   -0.18962924148043899439E-03    0.88991151309173228035E-04    0.27382606700487398374E-04
   1   -0.97990090899822812620E+00    0.37621193868357338808E+00    0.21733400569609068187E+00    0.28501997256759337152E-02   -0.99070244017809751952E-03   -0.61593284373286192202E-03
ATOMS        49
   1    0.37792439852763159980E+00    0.81903872236538499685E+00    0.30973122365041444448E+00    0.17265087995926874966E-03   -0.69090960984909154975E-03    0.57807880776688078562E-04
   8   -0.12186876300028898212E+00   -0.15619757783953103561E-01   -0.32415013825324155705E-01   -0.16285485368018858812E-03    0.10415641358036786639E-03    0.32022433733559836785E-04
   1   -0.92469117688376967212E+00    0.35560917943304415356E+00    0.20481169349549449565E+00    0.24124416927457001912E-02   -0.96242748795059612690E-03   -0.56611913913885074205E-03
ATOMS        50
   1    0.38159883782028236610E+00    0.80259527302674948945E+00    0.30966243030841095196E+00    0.20853441418795413617E-03   -0.93334979215391753252E-03   -0.57594400446769376616E-04
   8   -0.12470128863624346804E+00   -0.13456556449868560532E-01   -0.31772988851516643927E-01   -0.10439000859558001256E-03    0.10356052563321222653E-03    0.26911883259844292943E-04
   1   -0.88340324128840008733E+00    0.33771483916554950744E+00    0.19468924013053665045E+00    0.14485106771114661470E-02   -0.71052841957915341495E-03   -0.36959403121733286259E-03
ATOMS        51
   1    0.38626577509514981035E+00    0.78170473067922829902E+00    0.30742744763254364893E+00    0.27701946155881122975E-03   -0.11208646455656485260E-02   -0.15179942205701887903E-03
   8   -0.12604436334411217580E+00   -0.11477336758624613958E-01   -0.31338538494930380518E-01   -0.22234274171542471550E-04    0.88062645381195383035E-04    0.12910406087830696902E-04
   1   -0.86675074979931099328E+00    0.32718804264987799701E+00    0.19002793224680117334E+00    0.75918481164186538503E-04   -0.27700643634103318085E-03   -0.53135181573503078168E-04
ATOMS        52
   1    0.39267961628263481355E+00    0.75776068720412359525E+00    0.30359045342613016905E+00    0.38620372610427371445E-03   -0.12234671363843304791E-02   -0.20988492409109650214E-03
   8   -0.12559065960310514254E+00   -0.99340506346207446686E-02   -0.31256572608003414804E-01    0.60315252475994241010E-04    0.65262772327203153822E-04   -0.46780389243855364633E-05
   1   -0.88036650204183275470E+00    0.32663458171190817847E+00    0.19256383286759654050E+00   -0.13436238316340189808E-02    0.18751208681302056116E-03    0.28414223607764710041E-03
ATOMS        53
   1    0.40171392413932077714E+00    0.73276604522385513363E+00    0.29903205066889981811E+00    0.53893723350627862397E-03   -0.12162520419790124118E-02   -0.21799703917584951516E-03